ITEM: TIMESTEP
0
ITEM: NUMBER OF ATOMS
615
ITEM: BOX BOUNDS pp pp pp
-4.0000000000000000e+01 4.0000000000000000e+01
-4.0000000000000000e+01 4.0000000000000000e+01
-5.0000000000000001e-04 3.3229500000000002e+01
ITEM: ATOMS id type xs ys zs
84 1 0.451213 0.457375 0.15325
85 1 0.455225 0.453175 0.193545
94 1 0.455225 0.453175 0.0806651
95 1 0.4596 0.44935 0.12099
106 1 0.4596 0.44935 0.00808005
96 1 0.474538 0.440425 0.129055
97 1 0.479975 0.438375 0.16938
98 1 0.497088 0.435275 0.177415
107 1 0.464313 0.445925 0.0484051
108 1 0.479975 0.438375 0.0564701
109 1 0.485588 0.436838 0.0967951
110 1 0.502912 0.435275 0.10486
111 1 0.5087 0.4358 0.145185
112 1 0.525463 0.440425 0.15325
113 1 0.5307 0.44295 0.193545
119 1 0.4913 0.4358 0.0242101
120 1 0.5087 0.4358 0.0322751
121 1 0.514413 0.436838 0.0726001
122 1 0.5307 0.44295 0.0806651
123 1 0.535687 0.445925 0.12099
129 1 0.520025 0.438375 1.50466e-05
130 1 0.535687 0.445925 0.00808005
124 1 0.548787 0.457375 0.129055
131 1 0.5404 0.44935 0.0484051
56 1 0.444375 0.533225 0.15325
57 1 0.441625 0.528113 0.193545
66 1 0.441625 0.528113 0.0806651
67 1 0.439337 0.522763 0.12099
68 1 0.435475 0.505813 0.129055
69 1 0.435213 0.5 0.16938
70 1 0.43755 0.482763 0.177415
77 1 0.447588 0.538087 1.50466e-05
78 1 0.439337 0.522763 0.00808005
79 1 0.43755 0.517238 0.0484051
80 1 0.435213 0.5 0.0564701
81 1 0.435475 0.494188 0.0967951
82 1 0.439337 0.477238 0.10486
83 1 0.441625 0.471888 0.145185
91 1 0.43625 0.488438 0.0242101
92 1 0.441625 0.471888 0.0322751
93 1 0.444375 0.466775 0.0726001
105 1 0.447588 0.461913 1.50466e-05
439 3 0.529988 0.5087 0.189693
440 2 0.518213 0.505475 0.183193
441 2 0.536975 0.507913 0.164836
445 3 0.477225 0.495925 0.174165
446 2 0.4872 0.502337 0.164716
447 2 0.468488 0.5039 0.183885
454 3 0.50685 0.529687 0.167605
455 2 0.502575 0.5384 0.148676
456 2 0.517587 0.533587 0.179822
478 3 0.501962 0.525713 0.065799
479 2 0.500337 0.537737 0.0586067
480 2 0.491463 0.519375 0.0600211
502 3 0.500513 0.469888 0.0871351
503 2 0.49685 0.463688 0.0625188
504 2 0.499437 0.462425 0.11115
556 3 0.4774 0.523625 0.129747
557 2 0.474875 0.528212 0.157072
558 2 0.480525 0.532988 0.1113
562 3 0.52195 0.484237 0.136398
563 2 0.5098 0.484075 0.14347
564 2 0.5283 0.4773 0.156229
568 3 0.523425 0.5113 0.107809
569 2 0.51145 0.507975 0.110969
570 2 0.524162 0.523713 0.104589
583 3 0.526188 0.4865 0.0664309
584 2 0.537225 0.492363 0.0658291
585 2 0.528038 0.47415 0.0649564
589 3 0.485363 0.488275 0.0518959
590 2 0.494613 0.493825 0.0366988
591 2 0.4762 0.496538 0.0568613
5 1 0.56375 0.511563 0.193545
11 1 0.56245 0.517238 0.12099
12 1 0.555625 0.533225 0.129055
13 1 0.552412 0.538087 0.16938
21 1 0.564787 0.5 1.50466e-05
22 1 0.56245 0.517238 0.00808005
23 1 0.560663 0.522763 0.0484051
24 1 0.552412 0.538087 0.0564701
125 1 0.552412 0.461913 0.16938
126 1 0.560663 0.477238 0.177415
132 1 0.552412 0.461913 0.0564701
133 1 0.555625 0.466775 0.0967951
134 1 0.56245 0.482763 0.10486
135 1 0.56375 0.488438 0.145185
136 1 0.564525 0.505813 0.15325
137 1 0.558375 0.471888 0.0242101
138 1 0.56375 0.488438 0.0322751
139 1 0.564525 0.494188 0.0726001
140 1 0.56375 0.511563 0.0806651
54 1 0.4596 0.55065 0.10486
55 1 0.455225 0.546825 0.145185
64 1 0.455225 0.546825 0.0322751
65 1 0.451213 0.542625 0.0726001
26 1 0.535687 0.554075 0.10486
27 1 0.5307 0.55705 0.145185
28 1 0.514413 0.563163 0.15325
29 1 0.5087 0.5642 0.193545
36 1 0.5307 0.55705 0.0322751
37 1 0.525463 0.559575 0.0726001
38 1 0.5087 0.5642 0.0806651
39 1 0.502912 0.564725 0.12099
40 1 0.485588 0.563163 0.129055
41 1 0.479975 0.561625 0.16938
42 1 0.464313 0.554075 0.177415
49 1 0.520025 0.561625 1.50466e-05
50 1 0.502912 0.564725 0.00808005
51 1 0.497088 0.564725 0.0484051
52 1 0.479975 0.561625 0.0564701
53 1 0.474538 0.559575 0.0967951
63 1 0.4693 0.55705 0.0242101
14 1 0.5404 0.55065 0.177415
25 1 0.548787 0.542625 0.0967951
35 1 0.544775 0.546825 0.0242101
73 1 0.451213 0.457375 0.26613
246 1 0.4596 0.44935 0.34678
74 1 0.464313 0.445925 0.274195
75 1 0.4693 0.44295 0.31452
76 1 0.485588 0.436838 0.322585
86 1 0.4693 0.44295 0.20161
87 1 0.474538 0.440425 0.241935
88 1 0.4913 0.4358 0.25
89 1 0.497088 0.435275 0.290325
90 1 0.514413 0.436838 0.29839
99 1 0.502912 0.435275 0.21774
100 1 0.520025 0.438375 0.225805
101 1 0.525463 0.440425 0.26613
247 1 0.464313 0.445925 0.387105
248 1 0.479975 0.438375 0.39517
259 1 0.4913 0.4358 0.36291
260 1 0.5087 0.4358 0.370975
269 1 0.520025 0.438375 0.338715
270 1 0.535687 0.445925 0.34678
102 1 0.5404 0.44935 0.274195
103 1 0.544775 0.453175 0.31452
114 1 0.544775 0.453175 0.20161
115 1 0.548787 0.457375 0.241935
271 1 0.5404 0.44935 0.387105
44 1 0.447588 0.538087 0.225805
45 1 0.444375 0.533225 0.26613
46 1 0.43755 0.517238 0.274195
47 1 0.43625 0.511563 0.31452
48 1 0.435475 0.494188 0.322585
58 1 0.43625 0.511563 0.20161
59 1 0.435475 0.505813 0.241935
60 1 0.43625 0.488438 0.25
61 1 0.43755 0.482763 0.290325
62 1 0.444375 0.466775 0.29839
71 1 0.439337 0.477238 0.21774
72 1 0.447588 0.461913 0.225805
217 1 0.447588 0.538087 0.338715
218 1 0.439337 0.522763 0.34678
219 1 0.43755 0.517238 0.387105
220 1 0.435213 0.5 0.39517
231 1 0.43625 0.488438 0.36291
232 1 0.441625 0.471888 0.370975
245 1 0.447588 0.461913 0.338715
436 3 0.5175 0.474938 0.291258
437 2 0.5118 0.464213 0.29833
438 2 0.528863 0.47515 0.303717
442 3 0.507375 0.525362 0.33056
443 2 0.518963 0.527963 0.339949
444 2 0.49925 0.53285 0.344643
451 3 0.508238 0.496425 0.342687
452 2 0.4995 0.4887 0.353551
453 2 0.519538 0.492375 0.351053
499 3 0.474613 0.500638 0.297307
500 2 0.482363 0.51045 0.296314
501 2 0.481288 0.490138 0.300045
541 3 0.49965 0.474338 0.200497
542 2 0.498813 0.4859 0.211721
543 2 0.499963 0.466087 0.223067
544 3 0.499875 0.462813 0.38542
545 2 0.508675 0.46315 0.364054
546 2 0.488675 0.464738 0.372931
553 3 0.490325 0.527088 0.247231
554 2 0.4844 0.517863 0.232757
555 2 0.501312 0.529263 0.23387
593 2 0.494987 0.512025 0.386894
601 3 0.5146 0.506275 0.270734
602 2 0.50505 0.498275 0.273082
603 2 0.525362 0.499925 0.271095
604 3 0.4728 0.494963 0.361947
605 2 0.470087 0.507163 0.361375
606 2 0.463325 0.488713 0.374556
1 1 0.564525 0.505813 0.26613
2 1 0.560663 0.522763 0.274195
3 1 0.558375 0.528113 0.31452
6 1 0.558375 0.528113 0.20161
7 1 0.555625 0.533225 0.241935
104 1 0.555625 0.466775 0.322585
116 1 0.558375 0.471888 0.25
117 1 0.560663 0.477238 0.290325
118 1 0.564525 0.494188 0.29839
127 1 0.56245 0.482763 0.21774
128 1 0.564787 0.5 0.225805
161 1 0.564787 0.5 0.338715
162 1 0.56245 0.517238 0.34678
163 1 0.560663 0.522763 0.387105
164 1 0.552412 0.538087 0.39517
272 1 0.552412 0.461913 0.39517
277 1 0.558375 0.471888 0.36291
278 1 0.56375 0.488438 0.370975
34 1 0.451213 0.542625 0.29839
43 1 0.4596 0.55065 0.21774
204 1 0.455225 0.546825 0.370975
10 1 0.525463 0.559575 0.29839
15 1 0.535687 0.554075 0.21774
16 1 0.520025 0.561625 0.225805
17 1 0.514413 0.563163 0.26613
18 1 0.497088 0.564725 0.274195
19 1 0.4913 0.5642 0.31452
20 1 0.474538 0.559575 0.322585
30 1 0.4913 0.5642 0.20161
31 1 0.485588 0.563163 0.241935
32 1 0.4693 0.55705 0.25
33 1 0.464313 0.554075 0.290325
176 1 0.5307 0.55705 0.370975
189 1 0.520025 0.561625 0.338715
190 1 0.502912 0.564725 0.34678
191 1 0.497088 0.564725 0.387105
192 1 0.479975 0.561625 0.39517
203 1 0.4693 0.55705 0.36291
4 1 0.548787 0.542625 0.322585
8 1 0.544775 0.546825 0.25
9 1 0.5404 0.55065 0.290325
175 1 0.544775 0.546825 0.36291
224 1 0.451213 0.457375 0.49195
225 1 0.455225 0.453175 0.532245
234 1 0.455225 0.453175 0.419365
235 1 0.4596 0.44935 0.45969
226 1 0.4693 0.44295 0.54031
227 1 0.474538 0.440425 0.580635
228 1 0.4913 0.4358 0.5887
236 1 0.474538 0.440425 0.467755
237 1 0.479975 0.438375 0.50808
238 1 0.497088 0.435275 0.516145
239 1 0.502912 0.435275 0.55644
240 1 0.520025 0.438375 0.564505
249 1 0.485588 0.436838 0.435495
250 1 0.502912 0.435275 0.44356
251 1 0.5087 0.4358 0.483885
252 1 0.525463 0.440425 0.49195
253 1 0.5307 0.44295 0.532245
261 1 0.514413 0.436838 0.4113
262 1 0.5307 0.44295 0.419365
263 1 0.535687 0.445925 0.45969
539 2 0.506713 0.4608 0.533539
254 1 0.544775 0.453175 0.54031
255 1 0.548787 0.457375 0.580635
264 1 0.548787 0.457375 0.467755
184 1 0.447588 0.538087 0.564505
196 1 0.444375 0.533225 0.49195
197 1 0.441625 0.528113 0.532245
198 1 0.43625 0.511563 0.54031
199 1 0.435475 0.505813 0.580635
200 1 0.43625 0.488438 0.5887
206 1 0.441625 0.528113 0.419365
207 1 0.439337 0.522763 0.45969
208 1 0.435475 0.505813 0.467755
209 1 0.435213 0.5 0.50808
210 1 0.43755 0.482763 0.516145
211 1 0.439337 0.477238 0.55644
212 1 0.447588 0.461913 0.564505
221 1 0.435475 0.494188 0.435495
222 1 0.439337 0.477238 0.44356
223 1 0.441625 0.471888 0.483885
233 1 0.444375 0.466775 0.4113
427 3 0.490825 0.530288 0.525384
428 2 0.499825 0.538188 0.534051
429 2 0.485187 0.534788 0.500828
461 2 0.482838 0.477038 0.596193
462 2 0.497163 0.4625 0.595471
463 3 0.536688 0.482875 0.466672
464 2 0.536488 0.493638 0.451354
465 2 0.527675 0.483025 0.487556
470 2 0.504475 0.537375 0.408742
471 2 0.4842 0.535262 0.410969
475 3 0.50865 0.517788 0.59517
476 2 0.504788 0.513112 0.568868
477 2 0.508238 0.530275 0.594117
484 3 0.53055 0.52155 0.415964
485 2 0.536138 0.511975 0.402031
486 2 0.53265 0.520763 0.445546
490 3 0.483088 0.4642 0.437752
491 2 0.474838 0.471925 0.450632
492 2 0.49305 0.462975 0.455688
493 3 0.483625 0.4946 0.481568
494 2 0.494238 0.488012 0.482922
495 2 0.486275 0.506788 0.483193
496 3 0.471263 0.504175 0.427129
497 2 0.465938 0.5154 0.423729
498 2 0.462875 0.49615 0.438264
507 2 0.4809 0.524838 0.586353
520 3 0.531375 0.52375 0.533509
521 2 0.536438 0.515238 0.515152
522 2 0.53255 0.519938 0.562007
538 3 0.508075 0.472925 0.527099
540 2 0.500313 0.47965 0.544282
550 3 0.473988 0.473675 0.531643
551 2 0.480225 0.465763 0.513828
552 2 0.4648 0.4791 0.515934
559 3 0.511025 0.518325 0.490927
560 2 0.514225 0.506875 0.481598
561 2 0.506837 0.524975 0.467544
565 3 0.466488 0.508313 0.546389
566 2 0.466662 0.51715 0.525113
567 2 0.476638 0.5011 0.54365
586 3 0.534975 0.491175 0.55006
587 2 0.523163 0.494938 0.546268
588 2 0.535375 0.478688 0.550241
592 3 0.497825 0.509463 0.415543
594 2 0.509162 0.50425 0.416837
607 3 0.5224 0.47045 0.418643
608 2 0.5139 0.477863 0.431613
609 2 0.529737 0.477288 0.400677
145 1 0.56375 0.511563 0.532245
146 1 0.558375 0.528113 0.54031
147 1 0.555625 0.533225 0.580635
151 1 0.56245 0.517238 0.45969
152 1 0.555625 0.533225 0.467755
153 1 0.552412 0.538087 0.50808
256 1 0.558375 0.471888 0.5887
265 1 0.552412 0.461913 0.50808
266 1 0.560663 0.477238 0.516145
267 1 0.56245 0.482763 0.55644
268 1 0.564787 0.5 0.564505
273 1 0.555625 0.466775 0.435495
274 1 0.56245 0.482763 0.44356
275 1 0.56375 0.488438 0.483885
276 1 0.564525 0.505813 0.49195
279 1 0.564525 0.494188 0.4113
280 1 0.56375 0.511563 0.419365
183 1 0.4596 0.55065 0.55644
194 1 0.4596 0.55065 0.44356
195 1 0.455225 0.546825 0.483885
205 1 0.451213 0.542625 0.4113
155 1 0.535687 0.554075 0.55644
156 1 0.520025 0.561625 0.564505
166 1 0.535687 0.554075 0.44356
167 1 0.5307 0.55705 0.483885
168 1 0.514413 0.563163 0.49195
169 1 0.5087 0.5642 0.532245
170 1 0.4913 0.5642 0.54031
171 1 0.485588 0.563163 0.580635
172 1 0.4693 0.55705 0.5887
177 1 0.525463 0.559575 0.4113
178 1 0.5087 0.5642 0.419365
179 1 0.502912 0.564725 0.45969
180 1 0.485588 0.563163 0.467755
181 1 0.479975 0.561625 0.50808
182 1 0.464313 0.554075 0.516145
193 1 0.474538 0.559575 0.435495
469 3 0.494113 0.54095 0.423217
148 1 0.544775 0.546825 0.5887
154 1 0.5404 0.55065 0.516145
165 1 0.548787 0.542625 0.435495
213 1 0.451213 0.457375 0.60483
374 1 0.455225 0.453175 0.758065
375 1 0.4596 0.44935 0.79839
386 1 0.4596 0.44935 0.68548
214 1 0.464313 0.445925 0.612895
215 1 0.4693 0.44295 0.65322
216 1 0.485588 0.436838 0.661285
229 1 0.497088 0.435275 0.629025
230 1 0.514413 0.436838 0.63709
241 1 0.525463 0.440425 0.60483
387 1 0.464313 0.445925 0.725805
388 1 0.479975 0.438375 0.73387
389 1 0.485588 0.436838 0.774195
390 1 0.502912 0.435275 0.78226
399 1 0.4913 0.4358 0.70161
400 1 0.5087 0.4358 0.709675
401 1 0.514413 0.436838 0.75
402 1 0.5307 0.44295 0.758065
403 1 0.535687 0.445925 0.79839
409 1 0.520025 0.438375 0.677415
410 1 0.535687 0.445925 0.68548
242 1 0.5404 0.44935 0.612895
243 1 0.544775 0.453175 0.65322
411 1 0.5404 0.44935 0.725805
185 1 0.444375 0.533225 0.60483
186 1 0.43755 0.517238 0.612895
187 1 0.43625 0.511563 0.65322
188 1 0.435475 0.494188 0.661285
201 1 0.43755 0.482763 0.629025
202 1 0.444375 0.466775 0.63709
346 1 0.441625 0.528113 0.758065
347 1 0.439337 0.522763 0.79839
357 1 0.447588 0.538087 0.677415
358 1 0.439337 0.522763 0.68548
359 1 0.43755 0.517238 0.725805
360 1 0.435213 0.5 0.73387
361 1 0.435475 0.494188 0.774195
362 1 0.439337 0.477238 0.78226
371 1 0.43625 0.488438 0.70161
372 1 0.441625 0.471888 0.709675
373 1 0.444375 0.466775 0.75
385 1 0.447588 0.461913 0.677415
425 2 0.460875 0.4884 0.735284
424 3 0.468525 0.478513 0.735766
426 2 0.469075 0.47345 0.708291
459 2 0.499937 0.507738 0.788519
460 3 0.48505 0.46485 0.600316
481 3 0.52975 0.508875 0.642838
482 2 0.536188 0.512875 0.666792
483 2 0.518975 0.503825 0.652016
487 3 0.492613 0.488875 0.654574
488 2 0.495913 0.476813 0.654424
489 2 0.480138 0.48975 0.654514
505 3 0.480813 0.513975 0.601249
506 2 0.469738 0.512475 0.614731
508 3 0.518425 0.478763 0.611782
509 2 0.509988 0.4873 0.603446
510 2 0.529687 0.484138 0.613647
517 3 0.490775 0.538388 0.758336
518 2 0.492263 0.536188 0.787737
519 2 0.493337 0.527975 0.742868
535 3 0.465975 0.515363 0.794658
537 2 0.4685 0.523375 0.772359
571 3 0.519825 0.521925 0.758155
572 2 0.518262 0.533775 0.767003
573 2 0.531125 0.52065 0.745667
574 3 0.489988 0.494363 0.719275
575 2 0.499275 0.502688 0.721201
576 2 0.494775 0.482813 0.718974
580 3 0.517388 0.475675 0.752468
581 2 0.515863 0.487713 0.75975
582 2 0.5291 0.4722 0.758697
595 3 0.519412 0.533638 0.684397
596 2 0.519125 0.533813 0.654303
597 2 0.512688 0.523975 0.694448
598 3 0.468475 0.511475 0.704288
599 2 0.470212 0.523825 0.706305
600 2 0.462838 0.5088 0.678228
610 3 0.491625 0.527438 0.652769
611 2 0.489725 0.51595 0.663692
612 2 0.480625 0.533225 0.649398
613 3 0.531012 0.4881 0.703385
614 2 0.537713 0.496275 0.719425
615 2 0.536863 0.485762 0.677415
141 1 0.564525 0.505813 0.60483
142 1 0.560663 0.522763 0.612895
143 1 0.558375 0.528113 0.65322
244 1 0.555625 0.466775 0.661285
257 1 0.560663 0.477238 0.629025
258 1 0.564525 0.494188 0.63709
291 1 0.56245 0.517238 0.79839
301 1 0.564787 0.5 0.677415
302 1 0.56245 0.517238 0.68548
303 1 0.560663 0.522763 0.725805
304 1 0.552412 0.538087 0.73387
412 1 0.552412 0.461913 0.73387
413 1 0.555625 0.466775 0.774195
414 1 0.56245 0.482763 0.78226
417 1 0.558375 0.471888 0.70161
418 1 0.56375 0.488438 0.709675
419 1 0.564525 0.494188 0.75
420 1 0.56375 0.511563 0.758065
174 1 0.451213 0.542625 0.63709
334 1 0.4596 0.55065 0.78226
344 1 0.455225 0.546825 0.709675
345 1 0.451213 0.542625 0.75
150 1 0.525463 0.559575 0.63709
157 1 0.514413 0.563163 0.60483
158 1 0.497088 0.564725 0.612895
159 1 0.4913 0.5642 0.65322
160 1 0.474538 0.559575 0.661285
173 1 0.464313 0.554075 0.629025
306 1 0.535687 0.554075 0.78226
316 1 0.5307 0.55705 0.709675
317 1 0.525463 0.559575 0.75
318 1 0.5087 0.5642 0.758065
319 1 0.502912 0.564725 0.79839
329 1 0.520025 0.561625 0.677415
330 1 0.502912 0.564725 0.68548
331 1 0.497088 0.564725 0.725805
332 1 0.479975 0.561625 0.73387
333 1 0.474538 0.559575 0.774195
343 1 0.4693 0.55705 0.70161
144 1 0.548787 0.542625 0.661285
149 1 0.5404 0.55065 0.629025
305 1 0.548787 0.542625 0.774195
315 1 0.544775 0.546825 0.70161
353 1 0.451213 0.457375 0.94353
364 1 0.451213 0.457375 0.83065
365 1 0.455225 0.453175 0.870945
354 1 0.464313 0.445925 0.951595
355 1 0.4693 0.44295 0.99192
356 1 0.485588 0.436838 0.999985
366 1 0.4693 0.44295 0.87901
367 1 0.474538 0.440425 0.919335
368 1 0.4913 0.4358 0.9274
369 1 0.497088 0.435275 0.967725
370 1 0.514413 0.436838 0.97579
376 1 0.474538 0.440425 0.806455
377 1 0.479975 0.438375 0.84678
378 1 0.497088 0.435275 0.854845
379 1 0.502912 0.435275 0.89514
380 1 0.520025 0.438375 0.903205
381 1 0.525463 0.440425 0.94353
391 1 0.5087 0.4358 0.822585
392 1 0.525463 0.440425 0.83065
393 1 0.5307 0.44295 0.870945
534 2 0.502038 0.460938 0.942657
382 1 0.5404 0.44935 0.951595
383 1 0.544775 0.453175 0.99192
394 1 0.544775 0.453175 0.87901
395 1 0.548787 0.457375 0.919335
404 1 0.548787 0.457375 0.806455
324 1 0.447588 0.538087 0.903205
325 1 0.444375 0.533225 0.94353
326 1 0.43755 0.517238 0.951595
327 1 0.43625 0.511563 0.99192
328 1 0.435475 0.494188 0.999985
336 1 0.444375 0.533225 0.83065
337 1 0.441625 0.528113 0.870945
338 1 0.43625 0.511563 0.87901
339 1 0.435475 0.505813 0.919335
340 1 0.43625 0.488438 0.9274
341 1 0.43755 0.482763 0.967725
342 1 0.444375 0.466775 0.97579
348 1 0.435475 0.505813 0.806455
349 1 0.435213 0.5 0.84678
350 1 0.43755 0.482763 0.854845
351 1 0.439337 0.477238 0.89514
352 1 0.447588 0.461913 0.903205
363 1 0.441625 0.471888 0.822585
421 3 0.47095 0.489275 0.819546
422 2 0.466238 0.48045 0.80149
423 2 0.461725 0.494287 0.835916
430 3 0.474925 0.48035 0.935946
431 2 0.479988 0.491212 0.944523
432 2 0.463037 0.482238 0.927821
433 3 0.489113 0.464288 0.844523
434 2 0.4878 0.464275 0.81461
435 2 0.478225 0.46735 0.857343
448 3 0.490663 0.5272 0.885299
449 2 0.483563 0.537125 0.878769
450 2 0.489675 0.518775 0.863211
457 3 0.499213 0.501988 0.815152
458 2 0.498262 0.48965 0.810849
466 3 0.495888 0.529687 0.96291
467 2 0.491625 0.518013 0.959841
468 2 0.486263 0.537663 0.962459
472 3 0.514825 0.520725 0.920057
473 2 0.522837 0.5286 0.933238
474 2 0.515437 0.5096 0.933689
511 3 0.509687 0.536562 0.842988
512 2 0.512138 0.525788 0.828935
513 2 0.516775 0.537438 0.867695
514 3 0.529775 0.503062 0.803235
515 2 0.535513 0.513912 0.808983
516 2 0.538288 0.493938 0.80155
523 3 0.527925 0.48515 0.906274
524 2 0.535425 0.48275 0.882892
525 2 0.534763 0.485875 0.931402
526 3 0.494712 0.491663 0.885931
527 2 0.496737 0.48 0.895651
528 2 0.48265 0.492988 0.878769
529 3 0.466788 0.511725 0.913978
530 2 0.463612 0.51265 0.884968
531 2 0.468788 0.52315 0.925203
532 3 0.512313 0.468037 0.941965
533 2 0.509775 0.479225 0.953882
536 2 0.468562 0.520763 0.82108
547 3 0.5341 0.514462 0.875308
548 2 0.5245 0.50715 0.867424
577 3 0.5222 0.467913 0.83715
578 2 0.51565 0.465675 0.862218
579 2 0.515288 0.4649 0.813136
281 1 0.564525 0.505813 0.94353
282 1 0.560663 0.522763 0.951595
283 1 0.558375 0.528113 0.99192
285 1 0.56375 0.511563 0.870945
286 1 0.558375 0.528113 0.87901
287 1 0.555625 0.533225 0.919335
292 1 0.555625 0.533225 0.806455
293 1 0.552412 0.538087 0.84678
384 1 0.555625 0.466775 0.999985
396 1 0.558375 0.471888 0.9274
397 1 0.560663 0.477238 0.967725
398 1 0.564525 0.494188 0.97579
405 1 0.552412 0.461913 0.84678
406 1 0.560663 0.477238 0.854845
407 1 0.56245 0.482763 0.89514
408 1 0.564787 0.5 0.903205
415 1 0.56375 0.488438 0.822585
416 1 0.564525 0.505813 0.83065
549 2 0.539238 0.5101 0.900647
314 1 0.451213 0.542625 0.97579
323 1 0.4596 0.55065 0.89514
335 1 0.455225 0.546825 0.822585
290 1 0.525463 0.559575 0.97579
295 1 0.535687 0.554075 0.89514
296 1 0.520025 0.561625 0.903205
297 1 0.514413 0.563163 0.94353
298 1 0.497088 0.564725 0.951595
299 1 0.4913 0.5642 0.99192
300 1 0.474538 0.559575 0.999985
307 1 0.5307 0.55705 0.822585
308 1 0.514413 0.563163 0.83065
309 1 0.5087 0.5642 0.870945
310 1 0.4913 0.5642 0.87901
311 1 0.485588 0.563163 0.919335
312 1 0.4693 0.55705 0.9274
313 1 0.464313 0.554075 0.967725
320 1 0.485588 0.563163 0.806455
321 1 0.479975 0.561625 0.84678
322 1 0.464313 0.554075 0.854845
284 1 0.548787 0.542625 0.999985
288 1 0.544775 0.546825 0.9274
289 1 0.5404 0.55065 0.967725
294 1 0.5404 0.55065 0.854845
