ITEM: TIMESTEP
1000
ITEM: NUMBER OF ATOMS
615
ITEM: BOX BOUNDS pp pp pp
-4.0000000000000000e+01 4.0000000000000000e+01
-4.0000000000000000e+01 4.0000000000000000e+01
-5.0000000000000001e-04 3.3229500000000002e+01
ITEM: ATOMS id type xs ys zs
84 1 0.465838 0.455555 0.152977
94 1 0.474407 0.452429 0.0845244
95 1 0.476581 0.447972 0.124719
106 1 0.483311 0.452243 0.016808
105 1 0.470065 0.462183 0.00499462
96 1 0.491635 0.439598 0.135882
97 1 0.49567 0.43883 0.176267
98 1 0.512691 0.437434 0.187921
107 1 0.48574 0.446198 0.055528
108 1 0.500398 0.437138 0.0668732
109 1 0.504469 0.436073 0.107623
110 1 0.521636 0.43569 0.119332
111 1 0.525795 0.437578 0.159673
112 1 0.542252 0.44206 0.170854
119 1 0.513333 0.433725 0.0394752
120 1 0.530544 0.433437 0.0500882
121 1 0.534592 0.436342 0.0904733
122 1 0.550557 0.442753 0.101276
123 1 0.553917 0.446806 0.141617
129 1 0.543225 0.435414 0.020787
130 1 0.558201 0.443257 0.0307383
124 1 0.567121 0.45768 0.151933
131 1 0.561681 0.447661 0.0706759
132 1 0.572554 0.460946 0.0803867
56 1 0.465746 0.529566 0.15209
66 1 0.464201 0.525148 0.0812622
67 1 0.461261 0.519169 0.120112
68 1 0.453831 0.503352 0.126261
69 1 0.451148 0.497692 0.164864
70 1 0.450487 0.480445 0.172825
78 1 0.462753 0.52174 0.0100857
79 1 0.458826 0.515449 0.0482813
80 1 0.453167 0.498694 0.0552395
81 1 0.451955 0.492236 0.0943318
82 1 0.454932 0.475111 0.103124
83 1 0.455749 0.469471 0.142617
91 1 0.454659 0.486542 0.0251292
92 1 0.460749 0.470366 0.0341805
93 1 0.462717 0.465288 0.0739395
439 3 0.540443 0.511001 0.158884
440 2 0.544563 0.522145 0.149532
441 2 0.528073 0.511502 0.163035
445 3 0.5105 0.481997 0.241494
446 2 0.502763 0.490403 0.229287
447 2 0.52125 0.481849 0.226141
454 3 0.513608 0.526549 0.208878
455 2 0.512509 0.525519 0.179004
456 2 0.508158 0.537137 0.218027
478 3 0.503179 0.520177 0.139113
479 2 0.498946 0.508419 0.138422
480 2 0.503501 0.524774 0.11114
502 3 0.489742 0.489498 0.108138
503 2 0.488794 0.493033 0.0793631
504 2 0.481526 0.495908 0.12476
556 3 0.488258 0.496749 0.196512
557 2 0.490208 0.507858 0.209483
558 2 0.476839 0.492624 0.203669
562 3 0.543338 0.480422 0.108296
563 2 0.544099 0.490262 0.126766
564 2 0.532215 0.474894 0.11168
568 3 0.532444 0.531949 0.092805
569 2 0.532424 0.520131 0.0830005
570 2 0.532418 0.539728 0.0692487
583 3 0.532567 0.505352 0.0554803
584 2 0.541951 0.499905 0.0704215
585 2 0.524844 0.496573 0.0448375
589 3 0.488041 0.492823 0.0259405
590 2 0.486737 0.500909 0.0032076
591 2 0.480058 0.483324 0.0222912
11 1 0.57874 0.517714 0.145303
12 1 0.571593 0.533841 0.152303
21 1 0.578645 0.500232 0.0251531
22 1 0.57599 0.517027 0.0334397
23 1 0.576297 0.523119 0.073027
125 1 0.569352 0.462534 0.192151
126 1 0.577144 0.477954 0.201701
133 1 0.574705 0.466576 0.120467
134 1 0.580172 0.483068 0.129475
135 1 0.580728 0.489 0.169718
136 1 0.58117 0.506403 0.177655
137 1 0.576345 0.472042 0.049348
138 1 0.580119 0.488867 0.0569983
139 1 0.581479 0.494543 0.0971624
140 1 0.58024 0.511981 0.105141
77 1 0.473477 0.535365 0.0046433
54 1 0.48069 0.548615 0.108328
55 1 0.475392 0.544078 0.146638
64 1 0.478896 0.545124 0.0371935
65 1 0.473648 0.540155 0.0753516
26 1 0.554654 0.557756 0.127153
27 1 0.548422 0.56037 0.165817
28 1 0.531872 0.566379 0.170119
36 1 0.553144 0.562986 0.0556455
37 1 0.546186 0.56492 0.0940839
38 1 0.528903 0.568961 0.098274
39 1 0.521498 0.568243 0.136166
40 1 0.50428 0.563983 0.138758
41 1 0.497354 0.560923 0.176459
42 1 0.48222 0.552102 0.180313
49 1 0.544426 0.569839 0.0232579
50 1 0.527188 0.571524 0.0275804
51 1 0.518738 0.568281 0.0635607
52 1 0.501767 0.562608 0.0667071
53 1 0.494941 0.559231 0.104448
63 1 0.492136 0.556887 0.0341835
13 1 0.567795 0.538667 0.191806
24 1 0.569849 0.539343 0.0808582
14 1 0.556253 0.551978 0.198195
25 1 0.566114 0.544354 0.120335
35 1 0.564612 0.549812 0.0492516
85 1 0.468655 0.451843 0.193048
73 1 0.462087 0.456932 0.262994
246 1 0.467325 0.45005 0.342034
113 1 0.546212 0.444373 0.211111
74 1 0.475401 0.446111 0.273576
75 1 0.478559 0.44326 0.313765
76 1 0.494942 0.438079 0.325095
86 1 0.483378 0.443248 0.204397
87 1 0.487428 0.441525 0.244917
88 1 0.504035 0.437725 0.256648
89 1 0.508236 0.436416 0.297069
90 1 0.525416 0.43716 0.308712
99 1 0.516977 0.437876 0.228278
100 1 0.533948 0.440185 0.239838
101 1 0.538097 0.441062 0.280627
247 1 0.471004 0.447871 0.382217
248 1 0.486561 0.441094 0.3935
259 1 0.499052 0.437597 0.365408
260 1 0.516086 0.436977 0.377025
269 1 0.529199 0.439231 0.349151
270 1 0.544502 0.446925 0.36129
545 2 0.517736 0.476775 0.279409
102 1 0.55319 0.449421 0.292353
103 1 0.555372 0.453947 0.332736
114 1 0.560578 0.453692 0.222205
115 1 0.563076 0.457594 0.262986
271 1 0.547689 0.450018 0.401944
272 1 0.559921 0.462199 0.413459
57 1 0.460564 0.524852 0.190141
45 1 0.457494 0.531012 0.260846
46 1 0.448718 0.515816 0.266173
47 1 0.443425 0.511139 0.304101
48 1 0.441599 0.493751 0.311799
58 1 0.452924 0.509172 0.196248
59 1 0.448286 0.504173 0.234698
60 1 0.446947 0.486953 0.242655
61 1 0.445529 0.481662 0.282059
62 1 0.453026 0.466198 0.291763
71 1 0.451093 0.475411 0.212585
72 1 0.459714 0.460662 0.222587
217 1 0.454761 0.537671 0.330458
218 1 0.444909 0.522936 0.335314
219 1 0.44093 0.517756 0.37404
220 1 0.438465 0.500396 0.381337
231 1 0.441077 0.488398 0.351349
232 1 0.447409 0.472293 0.360633
245 1 0.455292 0.462231 0.331566
436 3 0.542476 0.484754 0.21555
437 2 0.539587 0.492642 0.193265
438 2 0.553767 0.479819 0.210488
442 3 0.517349 0.528275 0.306064
443 2 0.521587 0.520601 0.327516
451 3 0.542587 0.498768 0.319633
452 2 0.540588 0.507249 0.298057
453 2 0.533877 0.48983 0.317935
499 3 0.490662 0.475374 0.308703
500 2 0.486138 0.465925 0.292288
501 2 0.502293 0.472656 0.317579
541 3 0.514718 0.47349 0.150303
542 2 0.52157 0.463117 0.153433
543 2 0.502872 0.470373 0.144297
544 3 0.52257 0.471385 0.30394
546 2 0.534786 0.469388 0.299751
553 3 0.487349 0.507219 0.284311
554 2 0.495692 0.515722 0.293429
555 2 0.492474 0.495831 0.285581
593 2 0.5153 0.497876 0.369354
601 3 0.537569 0.515248 0.253767
602 2 0.529938 0.519454 0.23219
603 2 0.543931 0.505361 0.243546
604 3 0.476013 0.503394 0.358242
605 2 0.479882 0.492173 0.367679
606 2 0.480222 0.505438 0.330336
5 1 0.579948 0.512374 0.217455
1 1 0.578254 0.506976 0.290281
2 1 0.574637 0.524227 0.297434
3 1 0.571369 0.530033 0.336976
6 1 0.573579 0.528791 0.224466
7 1 0.570148 0.534255 0.264147
104 1 0.565776 0.467801 0.343664
116 1 0.572002 0.472533 0.273034
117 1 0.572489 0.478366 0.313201
118 1 0.576629 0.49537 0.322241
127 1 0.577536 0.48349 0.242025
128 1 0.580091 0.500901 0.250251
161 1 0.575339 0.501387 0.362171
162 1 0.57383 0.518952 0.369872
163 1 0.569524 0.524659 0.409365
277 1 0.566922 0.472867 0.384167
278 1 0.571911 0.489647 0.393464
485 2 0.545366 0.525731 0.390492
44 1 0.463989 0.535289 0.222957
34 1 0.461892 0.54104 0.293488
43 1 0.475736 0.548332 0.218265
204 1 0.461261 0.546875 0.363391
29 1 0.524349 0.56553 0.207667
444 2 0.52402 0.526623 0.280928
10 1 0.536367 0.559776 0.313331
15 1 0.550294 0.555009 0.237056
16 1 0.534351 0.562947 0.241817
17 1 0.526597 0.564009 0.279791
18 1 0.508752 0.564863 0.282872
19 1 0.500638 0.564691 0.319856
20 1 0.48359 0.559396 0.322845
30 1 0.506824 0.563823 0.211041
31 1 0.499041 0.562317 0.248627
32 1 0.482786 0.555492 0.252251
33 1 0.475294 0.552565 0.289455
176 1 0.538466 0.557603 0.384767
189 1 0.528635 0.561695 0.350701
190 1 0.511033 0.565267 0.35383
191 1 0.502936 0.565483 0.391208
192 1 0.485173 0.562514 0.393837
203 1 0.476003 0.557089 0.360102
164 1 0.560527 0.540185 0.415074
4 1 0.560506 0.544241 0.342584
8 1 0.558412 0.54749 0.270169
9 1 0.55209 0.551237 0.308826
175 1 0.554242 0.548796 0.381116
224 1 0.453727 0.460139 0.480221
225 1 0.455431 0.455775 0.520303
234 1 0.460352 0.454952 0.411085
235 1 0.463564 0.45222 0.451436
212 1 0.444807 0.463675 0.548363
226 1 0.468856 0.445097 0.531044
227 1 0.471569 0.441791 0.571202
228 1 0.487494 0.435381 0.582755
236 1 0.478261 0.443995 0.462729
237 1 0.481362 0.440707 0.50305
238 1 0.497422 0.434867 0.514216
239 1 0.50085 0.433356 0.55494
240 1 0.51758 0.436521 0.566954
249 1 0.49039 0.439879 0.43402
250 1 0.506945 0.436487 0.445751
251 1 0.510681 0.435354 0.48639
252 1 0.527304 0.438923 0.498192
253 1 0.530009 0.441482 0.538925
261 1 0.520046 0.437553 0.417636
262 1 0.53616 0.443074 0.429601
263 1 0.539308 0.44503 0.470344
539 2 0.504458 0.468041 0.474077
254 1 0.54261 0.453007 0.549926
255 1 0.544693 0.456935 0.590126
264 1 0.551608 0.457073 0.481818
196 1 0.442979 0.534907 0.47653
197 1 0.437695 0.529628 0.514854
198 1 0.431912 0.513063 0.520828
199 1 0.428787 0.506952 0.559578
200 1 0.430192 0.489617 0.567732
206 1 0.444324 0.528965 0.405974
207 1 0.439449 0.524186 0.444172
208 1 0.436135 0.50706 0.451034
209 1 0.434222 0.501435 0.490133
210 1 0.43742 0.48453 0.498827
211 1 0.436604 0.478838 0.538135
221 1 0.43792 0.494957 0.42066
222 1 0.442668 0.478366 0.429818
223 1 0.443915 0.473929 0.469726
233 1 0.449046 0.467587 0.400431
497 2 0.475061 0.510884 0.422537
427 3 0.513338 0.527242 0.52021
428 2 0.518925 0.536271 0.50433
429 2 0.519656 0.516546 0.516854
461 2 0.4677 0.483056 0.570012
463 3 0.533572 0.499841 0.445936
464 2 0.529772 0.510712 0.434234
465 2 0.528832 0.490404 0.429835
470 2 0.507619 0.529674 0.364628
471 2 0.488144 0.523973 0.369942
476 2 0.513491 0.527258 0.582918
477 2 0.494195 0.527846 0.598881
484 3 0.535567 0.5196 0.379042
486 2 0.539313 0.512619 0.355764
490 3 0.491443 0.477255 0.408017
491 2 0.491482 0.484541 0.432468
492 2 0.503107 0.476096 0.397565
493 3 0.498478 0.499339 0.470126
494 2 0.510465 0.499867 0.461691
495 2 0.493039 0.5104 0.465119
496 3 0.477053 0.519898 0.442828
498 2 0.479805 0.530574 0.42865
507 2 0.471429 0.524421 0.586402
520 3 0.530816 0.498822 0.52249
521 2 0.531319 0.500521 0.492701
522 2 0.522478 0.489893 0.528856
538 3 0.515636 0.471193 0.462948
540 2 0.524612 0.467285 0.48166
550 3 0.472093 0.49275 0.513135
551 2 0.482098 0.495089 0.495995
552 2 0.467478 0.481493 0.506231
559 3 0.516431 0.527199 0.445062
560 2 0.508092 0.524503 0.423604
561 2 0.523542 0.536786 0.436131
565 3 0.479892 0.525503 0.538701
566 2 0.475247 0.51652 0.521013
567 2 0.49127 0.528729 0.528954
586 3 0.499512 0.474102 0.537327
587 2 0.492453 0.483925 0.529742
588 2 0.500774 0.473694 0.567251
592 3 0.50999 0.500588 0.342904
594 2 0.505643 0.490099 0.330317
607 3 0.527036 0.479579 0.391676
608 2 0.525992 0.471116 0.41368
609 2 0.538008 0.47811 0.377701
469 3 0.498347 0.527984 0.384397
145 1 0.562215 0.511992 0.550386
146 1 0.555585 0.528292 0.556854
147 1 0.551162 0.533509 0.595277
151 1 0.565641 0.518454 0.480503
152 1 0.557198 0.533996 0.486406
256 1 0.553923 0.471356 0.600959
265 1 0.551993 0.462137 0.521733
266 1 0.559847 0.477533 0.531903
267 1 0.559393 0.482784 0.571691
268 1 0.562012 0.499926 0.581065
273 1 0.560836 0.46691 0.453809
274 1 0.566853 0.48335 0.463645
275 1 0.565669 0.489003 0.503069
276 1 0.565786 0.506526 0.511442
279 1 0.570914 0.495321 0.433657
280 1 0.570037 0.512934 0.441685
184 1 0.443213 0.538551 0.548753
183 1 0.456625 0.550155 0.54489
194 1 0.461764 0.551811 0.434686
195 1 0.455154 0.547886 0.472704
205 1 0.454971 0.543132 0.401335
155 1 0.533067 0.55579 0.567224
156 1 0.516809 0.563034 0.570458
166 1 0.538997 0.554798 0.457117
167 1 0.531506 0.55812 0.494803
168 1 0.514864 0.564244 0.497619
169 1 0.50706 0.565514 0.535577
170 1 0.489343 0.564369 0.538607
171 1 0.481336 0.562514 0.576056
172 1 0.464981 0.555683 0.579318
177 1 0.530573 0.560003 0.422447
178 1 0.51324 0.564382 0.425536
179 1 0.505058 0.565028 0.462883
180 1 0.487283 0.563609 0.465907
181 1 0.479777 0.561364 0.503958
182 1 0.463519 0.553987 0.506924
193 1 0.477391 0.56062 0.431354
153 1 0.551092 0.53864 0.524609
148 1 0.5406 0.547809 0.600365
154 1 0.539384 0.551945 0.529179
165 1 0.553025 0.54385 0.452947
213 1 0.445474 0.458532 0.588197
374 1 0.442463 0.455504 0.737138
375 1 0.445087 0.450739 0.777026
386 1 0.450676 0.452133 0.667795
385 1 0.437479 0.463326 0.657325
214 1 0.459107 0.447676 0.59886
215 1 0.462348 0.445788 0.639531
216 1 0.478231 0.439574 0.651123
229 1 0.491087 0.435268 0.623575
230 1 0.508097 0.435199 0.635516
241 1 0.520868 0.438607 0.607624
387 1 0.453575 0.448864 0.708125
388 1 0.46862 0.440314 0.719057
389 1 0.472071 0.436601 0.759246
390 1 0.489282 0.434281 0.771493
399 1 0.4817 0.437877 0.691496
400 1 0.498508 0.435565 0.703751
401 1 0.502611 0.435787 0.744265
402 1 0.519015 0.440661 0.756881
403 1 0.522579 0.443601 0.797731
409 1 0.511683 0.436999 0.675932
410 1 0.52698 0.444398 0.687697
376 1 0.45934 0.440661 0.787227
242 1 0.535232 0.447936 0.618805
243 1 0.537667 0.451603 0.659176
411 1 0.530079 0.447262 0.72826
412 1 0.541757 0.459804 0.739799
404 1 0.535697 0.454737 0.809989
185 1 0.437263 0.533671 0.586887
186 1 0.428756 0.518221 0.592176
187 1 0.425207 0.512357 0.631641
188 1 0.423518 0.494864 0.638572
201 1 0.428505 0.48357 0.607404
202 1 0.435946 0.467754 0.616863
346 1 0.425353 0.530119 0.736451
347 1 0.422372 0.524775 0.776415
358 1 0.427246 0.523466 0.664713
359 1 0.423318 0.518448 0.704152
360 1 0.420381 0.500965 0.710744
361 1 0.419524 0.495148 0.75102
362 1 0.422863 0.477675 0.75844
371 1 0.422199 0.489068 0.678527
372 1 0.428489 0.472706 0.687111
373 1 0.430056 0.467706 0.727397
506 2 0.468323 0.505875 0.605521
348 1 0.419396 0.507206 0.783225
462 2 0.480329 0.472677 0.599444
475 3 0.506147 0.526666 0.607226
425 2 0.487088 0.471642 0.742901
424 3 0.47911 0.469628 0.765554
426 2 0.469805 0.477956 0.764178
459 2 0.492149 0.505568 0.817081
460 3 0.471478 0.481494 0.59845
481 3 0.521182 0.495853 0.605401
482 2 0.51639 0.506809 0.614163
483 2 0.530376 0.497855 0.585589
487 3 0.490452 0.500548 0.646749
488 2 0.486813 0.491474 0.627998
489 2 0.482176 0.509909 0.645902
505 3 0.469578 0.518029 0.611876
508 3 0.502741 0.469331 0.616042
509 2 0.512108 0.477578 0.617724
510 2 0.498693 0.466639 0.643766
517 3 0.462577 0.5238 0.72113
518 2 0.469678 0.531706 0.705283
519 2 0.459268 0.51416 0.703709
535 3 0.453478 0.491155 0.771115
537 2 0.452099 0.497897 0.745994
571 3 0.494519 0.528211 0.754294
572 2 0.493164 0.538355 0.771573
573 2 0.493678 0.53148 0.725319
574 3 0.487568 0.498244 0.736259
575 2 0.476828 0.496923 0.721193
576 2 0.49003 0.510404 0.739938
580 3 0.502798 0.473642 0.823831
581 2 0.494797 0.475868 0.801339
582 2 0.511389 0.465374 0.814797
595 3 0.516223 0.511061 0.687227
596 2 0.511595 0.50311 0.666855
597 2 0.521839 0.504627 0.709203
598 3 0.455845 0.495394 0.690108
599 2 0.45654 0.485007 0.67345
600 2 0.447569 0.503251 0.677828
610 3 0.488862 0.531071 0.678737
611 2 0.497948 0.523442 0.669265
612 2 0.489281 0.541745 0.663106
613 3 0.497273 0.472934 0.689104
614 2 0.504798 0.47265 0.713124
615 2 0.494153 0.484771 0.683014
514 3 0.519036 0.486143 0.744094
141 1 0.559856 0.505425 0.620348
142 1 0.555121 0.52249 0.627275
143 1 0.551071 0.527901 0.666
244 1 0.547844 0.465284 0.670245
257 1 0.554653 0.476157 0.641136
258 1 0.558008 0.493237 0.650533
291 1 0.548164 0.515214 0.806844
301 1 0.555611 0.498995 0.689729
302 1 0.55343 0.516373 0.697598
303 1 0.549678 0.521292 0.736559
413 1 0.543938 0.46443 0.780615
414 1 0.550745 0.480518 0.790997
417 1 0.548452 0.470363 0.710179
418 1 0.553353 0.486929 0.720238
419 1 0.554193 0.492347 0.760392
420 1 0.552045 0.50976 0.768138
292 1 0.539958 0.530879 0.812353
357 1 0.436548 0.538465 0.659004
174 1 0.442881 0.542429 0.620647
334 1 0.443088 0.552778 0.763998
344 1 0.441885 0.54829 0.692144
345 1 0.434978 0.545055 0.73045
150 1 0.518177 0.559306 0.641802
157 1 0.508788 0.563487 0.607932
158 1 0.491023 0.564001 0.610898
159 1 0.482757 0.56276 0.648116
160 1 0.465621 0.558171 0.651489
173 1 0.457176 0.552898 0.616836
306 1 0.520516 0.55202 0.783226
316 1 0.519303 0.555125 0.712676
317 1 0.512162 0.558258 0.749696
318 1 0.495207 0.563432 0.752915
319 1 0.487428 0.564726 0.790108
329 1 0.510192 0.560333 0.679008
330 1 0.492772 0.563692 0.682194
331 1 0.484863 0.563482 0.719301
332 1 0.467165 0.561176 0.722563
333 1 0.459565 0.559914 0.760419
343 1 0.457544 0.556841 0.688725
320 1 0.469716 0.563785 0.794143
304 1 0.539739 0.535883 0.741661
144 1 0.54085 0.542335 0.671319
149 1 0.533993 0.551164 0.638332
305 1 0.533811 0.540201 0.77954
315 1 0.533773 0.545138 0.70881
353 1 0.431005 0.454622 0.916952
364 1 0.434461 0.45766 0.806654
365 1 0.436921 0.452317 0.846144
354 1 0.442802 0.441699 0.925479
355 1 0.44645 0.435528 0.964049
356 1 0.462252 0.429501 0.974339
366 1 0.451133 0.442442 0.855826
367 1 0.454917 0.438734 0.895797
368 1 0.471482 0.434573 0.90727
369 1 0.475454 0.43139 0.947214
370 1 0.492261 0.431775 0.959827
377 1 0.463317 0.438398 0.82716
378 1 0.480199 0.435588 0.839071
379 1 0.484507 0.435073 0.879478
380 1 0.501137 0.437356 0.89314
381 1 0.504744 0.43778 0.934123
391 1 0.49356 0.435147 0.812001
392 1 0.510239 0.438883 0.825338
393 1 0.513579 0.442013 0.865906
382 1 0.517942 0.44842 0.947229
383 1 0.517569 0.456029 0.984699
394 1 0.527818 0.451216 0.878995
395 1 0.529037 0.456028 0.919643
405 1 0.53761 0.459459 0.850357
325 1 0.428215 0.53461 0.920979
326 1 0.423144 0.517749 0.927289
327 1 0.424282 0.511126 0.965981
328 1 0.424754 0.494044 0.973212
336 1 0.426453 0.535851 0.809095
337 1 0.424832 0.530129 0.848865
338 1 0.420593 0.512828 0.85507
339 1 0.420564 0.506445 0.894773
340 1 0.420785 0.488759 0.902133
341 1 0.423062 0.482703 0.941471
342 1 0.42717 0.465782 0.947955
349 1 0.419595 0.501087 0.82284
350 1 0.421278 0.483473 0.830159
351 1 0.422713 0.477417 0.869814
352 1 0.42888 0.460918 0.877573
363 1 0.424493 0.472088 0.798392
534 2 0.510507 0.477179 0.0413158
421 3 0.473164 0.468989 0.876252
422 2 0.483442 0.472884 0.861918
423 2 0.463823 0.467719 0.856491
430 3 0.494562 0.474722 0.941277
431 2 0.496051 0.4624 0.944839
432 2 0.504494 0.480709 0.952507
433 3 0.510151 0.491103 0.888919
434 2 0.513814 0.491959 0.860221
435 2 0.501525 0.48212 0.891502
448 3 0.455367 0.50018 0.874449
450 2 0.464082 0.498216 0.8534
457 3 0.481202 0.499868 0.821836
458 2 0.480309 0.489866 0.803913
466 3 0.468387 0.529051 0.906593
467 2 0.467863 0.533874 0.878858
472 3 0.500631 0.518507 0.0586751
473 2 0.509722 0.521223 0.0390855
474 2 0.49528 0.507671 0.0509822
511 3 0.467445 0.528238 0.813441
512 2 0.4649 0.530007 0.784288
513 2 0.474861 0.518258 0.816533
515 2 0.509196 0.493075 0.735981
516 2 0.522361 0.489036 0.772255
523 3 0.512421 0.496809 0.978222
524 2 0.524789 0.498382 0.976049
525 2 0.506636 0.50476 0.959643
526 3 0.488787 0.513141 0.952004
527 2 0.486015 0.522902 0.934431
528 2 0.48243 0.503101 0.942668
529 3 0.466708 0.489969 0.946204
530 2 0.475918 0.481739 0.950839
531 2 0.46347 0.489849 0.917139
532 3 0.510831 0.471822 0.0684949
533 2 0.505629 0.479483 0.0887106
536 2 0.442678 0.490956 0.786258
547 3 0.500115 0.520831 0.870928
548 2 0.506264 0.511297 0.883563
577 3 0.514417 0.507575 0.80317
578 2 0.514881 0.515675 0.826063
579 2 0.506548 0.51184 0.782163
549 2 0.487894 0.519721 0.876657
281 1 0.546181 0.504489 0.94932
282 1 0.539773 0.521163 0.955204
283 1 0.53462 0.527064 0.99263
285 1 0.546197 0.509771 0.877281
286 1 0.540636 0.526449 0.883015
287 1 0.535607 0.53136 0.921281
384 1 0.528989 0.468089 0.997646
396 1 0.539053 0.470241 0.931044
397 1 0.540263 0.475818 0.971032
398 1 0.546889 0.492042 0.979792
406 1 0.545359 0.474827 0.861174
407 1 0.545259 0.480802 0.900871
408 1 0.546766 0.498288 0.909576
415 1 0.549658 0.486225 0.830826
416 1 0.548936 0.503679 0.838607
324 1 0.430201 0.540598 0.881689
314 1 0.43289 0.545161 0.953441
323 1 0.44034 0.555057 0.876044
335 1 0.437256 0.549884 0.803228
449 2 0.456717 0.511675 0.885814
468 2 0.459946 0.534713 0.924108
290 1 0.504218 0.560476 0.963778
295 1 0.515451 0.551807 0.890484
296 1 0.500501 0.56162 0.894641
297 1 0.49418 0.56587 0.932316
298 1 0.476816 0.569718 0.938111
299 1 0.469032 0.57153 0.975809
300 1 0.4526 0.565919 0.981608
307 1 0.513427 0.554818 0.820338
308 1 0.497542 0.562722 0.823907
309 1 0.490345 0.565282 0.861402
310 1 0.472728 0.567372 0.865683
311 1 0.465875 0.567998 0.904601
312 1 0.449102 0.562305 0.909605
313 1 0.443563 0.559145 0.948912
321 1 0.462323 0.56407 0.832126
322 1 0.445866 0.557612 0.836506
293 1 0.534994 0.535919 0.850053
284 1 0.52328 0.540162 0.994642
288 1 0.523534 0.544455 0.923685
289 1 0.517599 0.549039 0.960825
294 1 0.521838 0.547848 0.853268
ITEM: TIMESTEP
2000
ITEM: NUMBER OF ATOMS
615
ITEM: BOX BOUNDS pp pp pp
-4.0000000000000000e+01 4.0000000000000000e+01
-4.0000000000000000e+01 4.0000000000000000e+01
-5.0000000000000001e-04 3.3229500000000002e+01
ITEM: ATOMS id type xs ys zs
84 1 0.467996 0.460035 0.152666
94 1 0.475934 0.455413 0.0845226
95 1 0.47799 0.451213 0.125076
106 1 0.484947 0.452199 0.0166316
96 1 0.492029 0.441357 0.137989
97 1 0.495245 0.438189 0.178347
98 1 0.512302 0.435671 0.190765
107 1 0.486784 0.447438 0.0571402
108 1 0.500842 0.437854 0.0712423
109 1 0.504934 0.437323 0.111592
110 1 0.521842 0.434453 0.123142
111 1 0.525636 0.43602 0.163406
119 1 0.513547 0.432487 0.0450009
120 1 0.530736 0.432314 0.0546297
121 1 0.535043 0.433717 0.09488
85 1 0.469679 0.454997 0.192662
112 1 0.541959 0.440878 0.174271
122 1 0.551149 0.439809 0.105286
123 1 0.553945 0.444981 0.145379
129 1 0.542899 0.435315 0.0248928
130 1 0.558499 0.442321 0.0339941
124 1 0.566463 0.45682 0.155901
131 1 0.561998 0.445668 0.0749243
132 1 0.572028 0.459682 0.0854777
67 1 0.455794 0.526968 0.118261
68 1 0.45319 0.509587 0.125135
69 1 0.450987 0.503803 0.164086
70 1 0.453997 0.486559 0.172008
79 1 0.459151 0.52033 0.0482725
80 1 0.458139 0.502995 0.0559286
81 1 0.455804 0.497438 0.0948527
82 1 0.458686 0.480196 0.102431
83 1 0.459462 0.47524 0.142398
91 1 0.46194 0.491337 0.025796
92 1 0.466333 0.474788 0.0333949
57 1 0.455308 0.532323 0.189557
58 1 0.450102 0.515444 0.195596
105 1 0.475109 0.465765 0.00462549
56 1 0.459344 0.537875 0.150531
66 1 0.460218 0.532083 0.0795965
78 1 0.46285 0.525962 0.0094398
93 1 0.465743 0.46933 0.0730195
441 2 0.529358 0.524235 0.170363
455 2 0.514209 0.533147 0.205834
478 3 0.513638 0.533184 0.145916
479 2 0.506742 0.523658 0.135714
480 2 0.521295 0.537136 0.124117
502 3 0.504971 0.484533 0.072759
503 2 0.509908 0.490166 0.0968506
504 2 0.504567 0.492595 0.0497822
556 3 0.497151 0.495398 0.148281
558 2 0.495047 0.501645 0.122713
564 2 0.548651 0.500748 0.113154
568 3 0.53211 0.5253 0.0841444
569 2 0.539397 0.534606 0.074347
583 3 0.545129 0.49716 0.0518059
585 2 0.549198 0.494615 0.0240195
589 3 0.496939 0.513026 0.0153328
590 2 0.49143 0.519414 0.993124
591 2 0.50473 0.504553 0.0035989
77 1 0.473143 0.539864 0.00338198
437 2 0.547675 0.491461 0.19954
541 3 0.510529 0.470796 0.174467
542 2 0.508716 0.464149 0.199576
543 2 0.514706 0.482191 0.181676
534 2 0.533496 0.470804 0.116644
472 3 0.493076 0.516563 0.0892768
473 2 0.499129 0.527182 0.0955782
474 2 0.495659 0.513076 0.0610553
532 3 0.53319 0.468378 0.0871323
533 2 0.521436 0.469337 0.0771531
439 3 0.536863 0.517137 0.187309
440 2 0.536262 0.520953 0.215929
562 3 0.54581 0.49154 0.132321
563 2 0.537637 0.495734 0.152728
584 2 0.54179 0.486536 0.0654747
11 1 0.580485 0.517655 0.147077
12 1 0.573005 0.533824 0.15342
21 1 0.58477 0.499144 0.0298103
22 1 0.581205 0.516269 0.0366282
23 1 0.578036 0.522986 0.075278
125 1 0.569329 0.462133 0.195651
133 1 0.574135 0.46565 0.125143
134 1 0.580754 0.482044 0.133056
135 1 0.582046 0.488502 0.172813
136 1 0.582953 0.506195 0.179641
137 1 0.57628 0.470936 0.0545182
138 1 0.581716 0.487635 0.0611581
139 1 0.582292 0.493661 0.100754
140 1 0.581126 0.511458 0.107487
570 2 0.534849 0.514826 0.0691029
54 1 0.477717 0.554709 0.107671
55 1 0.471162 0.550991 0.146035
64 1 0.478225 0.549005 0.0371846
65 1 0.470775 0.546216 0.0743113
28 1 0.530232 0.563568 0.168471
38 1 0.528135 0.568419 0.0971021
39 1 0.52014 0.567261 0.134853
40 1 0.502465 0.567348 0.138997
41 1 0.495297 0.56472 0.177145
42 1 0.479309 0.557324 0.180684
50 1 0.526113 0.571785 0.0250125
51 1 0.517966 0.570488 0.062659
52 1 0.500671 0.566427 0.0671944
53 1 0.492868 0.564238 0.104568
63 1 0.49164 0.560181 0.0350208
26 1 0.553717 0.556048 0.126468
27 1 0.546526 0.556941 0.164529
36 1 0.552936 0.563214 0.0553616
37 1 0.545627 0.564433 0.0938948
49 1 0.543374 0.568017 0.0213795
13 1 0.567911 0.537767 0.192882
24 1 0.570626 0.539383 0.0814374
14 1 0.554495 0.549044 0.19743
25 1 0.566592 0.543885 0.121056
35 1 0.565031 0.550355 0.0499456
72 1 0.460728 0.464212 0.220925
73 1 0.462393 0.459251 0.261061
246 1 0.466443 0.450803 0.341597
74 1 0.475287 0.448233 0.27294
75 1 0.47848 0.445691 0.313341
76 1 0.494597 0.439933 0.325783
86 1 0.482843 0.44383 0.205077
87 1 0.486931 0.441887 0.245609
88 1 0.503555 0.43723 0.25789
89 1 0.507825 0.437084 0.29825
90 1 0.524898 0.43784 0.309934
99 1 0.51687 0.436365 0.23068
100 1 0.533671 0.439405 0.24209
247 1 0.46902 0.446415 0.381638
248 1 0.484732 0.439434 0.393579
259 1 0.498394 0.438623 0.366347
260 1 0.515499 0.436794 0.377977
269 1 0.528713 0.439005 0.350403
113 1 0.54578 0.443987 0.214124
101 1 0.537613 0.440974 0.282073
270 1 0.54472 0.444521 0.362991
102 1 0.551876 0.44994 0.293697
103 1 0.554878 0.452683 0.334122
114 1 0.559961 0.453688 0.225059
115 1 0.561659 0.45838 0.265178
45 1 0.455943 0.535489 0.261621
46 1 0.448978 0.519442 0.26719
47 1 0.445846 0.513109 0.305441
48 1 0.444108 0.495821 0.312729
59 1 0.44835 0.508553 0.234572
60 1 0.449488 0.490993 0.242306
61 1 0.448071 0.484622 0.281603
62 1 0.454131 0.468509 0.290808
71 1 0.453994 0.480163 0.211203
217 1 0.455048 0.539941 0.332054
218 1 0.446648 0.524389 0.337414
219 1 0.442331 0.518941 0.375675
220 1 0.440187 0.501721 0.383239
231 1 0.443046 0.490134 0.352307
232 1 0.448094 0.473679 0.361282
245 1 0.454902 0.463447 0.330946
445 3 0.490672 0.500333 0.228866
446 2 0.487983 0.497603 0.200222
447 2 0.498148 0.510343 0.229805
454 3 0.508046 0.527452 0.228138
456 2 0.512941 0.530874 0.254574
557 2 0.50243 0.484376 0.141959
545 2 0.519795 0.482254 0.23069
442 3 0.518674 0.530221 0.298613
443 2 0.51365 0.519084 0.304973
453 2 0.538896 0.500661 0.357822
499 3 0.493422 0.476809 0.323252
500 2 0.482469 0.471389 0.316921
501 2 0.500507 0.477094 0.298468
544 3 0.511145 0.477628 0.249341
546 2 0.500574 0.484199 0.246554
553 3 0.485624 0.519138 0.298387
554 2 0.48441 0.524898 0.271839
555 2 0.491574 0.508264 0.294506
593 2 0.52259 0.49445 0.328689
602 2 0.53037 0.512226 0.275842
604 3 0.480165 0.506936 0.378252
605 2 0.477247 0.495097 0.384872
606 2 0.477637 0.509162 0.349272
44 1 0.460748 0.541063 0.223601
444 2 0.526871 0.533315 0.320077
470 2 0.499109 0.535548 0.343436
471 2 0.492052 0.522441 0.377061
484 3 0.529778 0.513714 0.385456
492 2 0.489844 0.472249 0.378773
592 3 0.511772 0.500364 0.323729
594 2 0.502423 0.493865 0.336145
607 3 0.524053 0.47501 0.392017
609 2 0.534945 0.480974 0.395458
469 3 0.499937 0.531925 0.372168
126 1 0.577638 0.477579 0.20468
436 3 0.540404 0.481881 0.207737
438 2 0.546805 0.471199 0.20512
451 3 0.543075 0.490999 0.341594
452 2 0.546114 0.494927 0.313977
601 3 0.541171 0.507277 0.266486
603 2 0.53884 0.497781 0.247739
5 1 0.580874 0.512145 0.219916
1 1 0.578837 0.505859 0.293329
2 1 0.572943 0.522402 0.299135
3 1 0.568187 0.527898 0.337303
6 1 0.573493 0.528063 0.226114
7 1 0.568232 0.532208 0.265358
104 1 0.565618 0.466161 0.344714
116 1 0.571198 0.472763 0.275263
117 1 0.573312 0.476919 0.315691
118 1 0.578196 0.49372 0.324528
127 1 0.577441 0.483517 0.244684
128 1 0.580342 0.500637 0.253012
161 1 0.575352 0.499653 0.363164
162 1 0.571024 0.516859 0.369306
277 1 0.565418 0.471433 0.384527
278 1 0.571122 0.487919 0.393593
485 2 0.520369 0.516754 0.403867
486 2 0.534601 0.524102 0.373402
204 1 0.461483 0.548746 0.364778
34 1 0.460886 0.544894 0.294659
43 1 0.473602 0.552779 0.219334
29 1 0.52313 0.563771 0.206771
10 1 0.535318 0.559024 0.312533
16 1 0.533271 0.560979 0.240393
17 1 0.526327 0.563689 0.278419
18 1 0.508989 0.565525 0.282924
19 1 0.501181 0.565162 0.320243
20 1 0.484278 0.560268 0.324352
30 1 0.505702 0.564887 0.211194
31 1 0.498792 0.563626 0.249565
32 1 0.482165 0.558275 0.253531
33 1 0.475258 0.555118 0.291009
189 1 0.527909 0.561427 0.350201
190 1 0.510943 0.566105 0.35432
191 1 0.502578 0.566764 0.391539
192 1 0.484995 0.563997 0.394866
203 1 0.476225 0.558511 0.361076
15 1 0.548329 0.552096 0.235971
176 1 0.53661 0.556681 0.384338
4 1 0.557423 0.541936 0.342429
8 1 0.555853 0.544745 0.270032
9 1 0.549908 0.549108 0.3085
175 1 0.550913 0.546424 0.379865
224 1 0.452142 0.458593 0.481333
225 1 0.452109 0.452579 0.520668
234 1 0.458182 0.453577 0.410762
213 1 0.443771 0.456525 0.590295
214 1 0.456132 0.44451 0.60095
235 1 0.461379 0.45036 0.451222
226 1 0.465474 0.442149 0.531344
227 1 0.468321 0.439268 0.571845
228 1 0.485031 0.434977 0.5829
236 1 0.475731 0.441343 0.462279
237 1 0.478404 0.438689 0.502922
238 1 0.495084 0.435344 0.514116
239 1 0.49843 0.434713 0.554655
240 1 0.515211 0.4378 0.566531
249 1 0.488485 0.437289 0.433891
250 1 0.505546 0.434675 0.445572
251 1 0.508897 0.435026 0.4865
252 1 0.525347 0.439378 0.498859
253 1 0.527879 0.442336 0.539105
261 1 0.519365 0.435697 0.418399
262 1 0.535501 0.441351 0.431402
271 1 0.547296 0.447771 0.403545
263 1 0.537916 0.444798 0.471751
254 1 0.541036 0.453235 0.550842
255 1 0.543232 0.457845 0.590604
264 1 0.550377 0.456655 0.482781
212 1 0.443173 0.461702 0.550274
196 1 0.443897 0.535607 0.478596
197 1 0.439134 0.530044 0.516726
198 1 0.434295 0.513102 0.523782
199 1 0.43177 0.506772 0.56274
200 1 0.431881 0.489159 0.570933
206 1 0.444871 0.530156 0.407782
207 1 0.440305 0.524943 0.44637
208 1 0.436857 0.507691 0.453425
209 1 0.434742 0.501387 0.492427
210 1 0.436783 0.483917 0.501098
211 1 0.436461 0.477753 0.540636
221 1 0.439057 0.495948 0.422416
222 1 0.443224 0.479056 0.431249
223 1 0.443439 0.473345 0.471049
233 1 0.448723 0.46805 0.4008
184 1 0.442814 0.540005 0.549761
185 1 0.437271 0.534739 0.588043
186 1 0.431307 0.518224 0.594801
539 2 0.512193 0.472754 0.433787
497 2 0.465768 0.529049 0.456035
427 3 0.522148 0.515162 0.531697
428 2 0.525299 0.508748 0.507006