ITEM: TIMESTEP
1000
ITEM: NUMBER OF ATOMS
615
ITEM: BOX BOUNDS pp pp pp
-4.8000000000000000e+01 4.8000000000000000e+01
-4.8000000000000000e+01 4.8000000000000000e+01
-3.8550000000000001e-01 3.3614500000000000e+01
ITEM: ATOMS id type xs ys zs
98 1 0.499489 0.44615 0.193216
109 1 0.489317 0.446188 0.115893
119 1 0.494093 0.444618 0.0472842
81 1 0.448756 0.493222 0.113244
91 1 0.449724 0.487615 0.0444646
70 1 0.449703 0.484193 0.190607
82 1 0.451372 0.478972 0.121603
83 1 0.452809 0.474612 0.160746
84 1 0.460288 0.462133 0.16895
92 1 0.452613 0.473478 0.052987
93 1 0.454872 0.469476 0.0916268
94 1 0.463175 0.457595 0.10009
95 1 0.467232 0.455179 0.139001
96 1 0.480126 0.44871 0.146726
97 1 0.485118 0.44776 0.185497
105 1 0.455872 0.463609 0.0240938
106 1 0.464838 0.452243 0.032094
107 1 0.470361 0.450679 0.0697748
108 1 0.48418 0.445921 0.0771975
445 3 0.484338 0.486058 0.178052
503 2 0.486078 0.477014 0.076226
504 2 0.497976 0.479044 0.110071
589 3 0.481035 0.504964 0.0753206
590 2 0.483229 0.495969 0.0887975
591 2 0.477566 0.503029 0.0481309
110 1 0.503843 0.446364 0.124058
111 1 0.509026 0.447026 0.162349
120 1 0.508459 0.446422 0.0556775
121 1 0.513343 0.448382 0.0937926
112 1 0.523023 0.451043 0.169795
122 1 0.526939 0.453927 0.101152
123 1 0.531617 0.455866 0.139187
124 1 0.542793 0.465168 0.147253
125 1 0.545793 0.468838 0.185864
126 1 0.552583 0.481506 0.194431
129 1 0.518292 0.448209 0.0264767
130 1 0.530849 0.455276 0.0336391
131 1 0.535392 0.459158 0.0707788
132 1 0.546173 0.469156 0.0783373
133 1 0.54888 0.472952 0.117061
134 1 0.554731 0.486248 0.125462
137 1 0.551883 0.477776 0.0487991
502 3 0.488038 0.480888 0.102961
562 3 0.516307 0.484029 0.116901
563 2 0.515828 0.480077 0.144081
564 2 0.520764 0.493439 0.117826
583 3 0.510844 0.486646 0.0412792
584 2 0.517476 0.480121 0.0280474
585 2 0.512579 0.486575 0.0702795
135 1 0.555751 0.490952 0.164157
138 1 0.556865 0.4913 0.0567959
139 1 0.556847 0.496073 0.0953488
21 1 0.559532 0.501085 0.027475
68 1 0.44863 0.503192 0.143565
69 1 0.448228 0.498553 0.182302
80 1 0.448725 0.49785 0.0741351
41 1 0.483606 0.551096 0.182977
42 1 0.470293 0.545102 0.189694
52 1 0.484204 0.551334 0.0753462
53 1 0.479394 0.549465 0.113751
54 1 0.466779 0.541927 0.120928
55 1 0.462877 0.538832 0.159169
56 1 0.454463 0.526908 0.166309
63 1 0.474956 0.547385 0.0454063
64 1 0.463131 0.539086 0.0527039
65 1 0.459779 0.534962 0.0906984
66 1 0.452947 0.522014 0.0973064
67 1 0.451178 0.517513 0.135906
77 1 0.458255 0.530672 0.0226443
78 1 0.452908 0.51731 0.0288946
79 1 0.450687 0.512324 0.0668235
446 2 0.482235 0.485964 0.149247
447 2 0.480114 0.494535 0.190299
480 2 0.499917 0.524154 0.0362853
556 3 0.486534 0.517905 0.142973
557 2 0.486203 0.527548 0.131889
558 2 0.4823 0.511242 0.123784
479 2 0.492772 0.517619 0.0757737
40 1 0.48863 0.552474 0.144838
51 1 0.498781 0.553125 0.0685915
11 1 0.554456 0.515275 0.141533
12 1 0.54815 0.528302 0.149038
13 1 0.544603 0.532265 0.186963
14 1 0.534414 0.542701 0.193585
22 1 0.55767 0.515493 0.0346318
23 1 0.554409 0.52021 0.0727654
24 1 0.546551 0.532577 0.0799315
25 1 0.54261 0.536169 0.117983
26 1 0.531202 0.545303 0.124841
27 1 0.526521 0.548173 0.16266
35 1 0.539879 0.539616 0.04983
36 1 0.52749 0.546822 0.0563059
37 1 0.522464 0.549177 0.0939856
49 1 0.518369 0.548886 0.025348
439 3 0.524855 0.50282 0.189586
440 2 0.52796 0.502649 0.217657
441 2 0.518957 0.494456 0.184109
454 3 0.508673 0.524149 0.180096
455 2 0.514935 0.516096 0.186049
456 2 0.500347 0.520784 0.165193
478 3 0.500918 0.522964 0.0653677
568 3 0.522679 0.510673 0.103853
569 2 0.515849 0.517214 0.0915209
570 2 0.524945 0.513939 0.131039
136 1 0.556237 0.505561 0.172103
140 1 0.556247 0.510607 0.103377
28 1 0.512727 0.553135 0.169104
38 1 0.508267 0.55287 0.0998319
39 1 0.503111 0.553975 0.138079
50 1 0.504085 0.551555 0.030925
76 1 0.48978 0.446535 0.33085
88 1 0.494669 0.445884 0.261963
89 1 0.499498 0.445576 0.300518
259 1 0.49455 0.445427 0.369525
48 1 0.447237 0.494156 0.328551
60 1 0.448273 0.489257 0.259384
231 1 0.44815 0.48926 0.367303
61 1 0.449228 0.484584 0.298348
62 1 0.455307 0.471551 0.306662
71 1 0.450894 0.479741 0.229493
72 1 0.457811 0.467037 0.237818
73 1 0.461153 0.463733 0.276327
74 1 0.472192 0.454396 0.284387
75 1 0.476311 0.451738 0.32274
85 1 0.46399 0.459361 0.207761
86 1 0.475978 0.451255 0.21579
87 1 0.480741 0.449717 0.25429
232 1 0.452973 0.47566 0.375695
245 1 0.458225 0.467492 0.345234
246 1 0.468097 0.456929 0.353362
247 1 0.471964 0.453837 0.391839
248 1 0.484926 0.447493 0.399993
501 2 0.486746 0.489621 0.277932
542 2 0.500417 0.481686 0.184205
543 2 0.511857 0.47814 0.21831
544 3 0.497141 0.476513 0.33968
546 2 0.494557 0.475434 0.368009
604 3 0.476894 0.498984 0.366981
606 2 0.476194 0.496213 0.338697
90 1 0.513858 0.447269 0.308172
99 1 0.504461 0.445985 0.231369
260 1 0.508973 0.445545 0.377471
452 2 0.511752 0.492978 0.26626
541 3 0.510404 0.479364 0.189392
100 1 0.518729 0.448846 0.23886
101 1 0.523247 0.450333 0.277467
102 1 0.535879 0.457551 0.285269
103 1 0.539711 0.460155 0.324407
104 1 0.548501 0.471863 0.332541
113 1 0.527656 0.452842 0.208308
114 1 0.539229 0.461445 0.215922
115 1 0.542846 0.464577 0.254865
116 1 0.550845 0.476574 0.263135
117 1 0.552384 0.48089 0.301852
127 1 0.554079 0.485921 0.232927
269 1 0.518479 0.448373 0.347225
270 1 0.531748 0.454203 0.354942
271 1 0.535364 0.457223 0.393731
272 1 0.54538 0.467761 0.401451
277 1 0.5504 0.47633 0.371079
436 3 0.500992 0.476556 0.264023
437 2 0.498046 0.467602 0.251507
438 2 0.499635 0.475938 0.293132
451 3 0.519549 0.499846 0.268311
453 2 0.522084 0.501176 0.296591
545 2 0.506965 0.479903 0.337675
602 2 0.508166 0.514515 0.261989
118 1 0.554817 0.495332 0.309585
278 1 0.553983 0.49046 0.378786
161 1 0.554471 0.500288 0.348112
47 1 0.447374 0.508562 0.32071
58 1 0.448345 0.508601 0.212432
59 1 0.447453 0.503707 0.251152
20 1 0.478506 0.549619 0.328355
32 1 0.474263 0.547493 0.259047
33 1 0.470001 0.544782 0.297771
34 1 0.459243 0.535076 0.304766
43 1 0.466134 0.542081 0.228429
44 1 0.456363 0.531333 0.235567
45 1 0.453653 0.527116 0.27389
46 1 0.448397 0.513448 0.281817
57 1 0.452031 0.522589 0.204869
192 1 0.482774 0.551568 0.397863
203 1 0.474054 0.547338 0.367006
204 1 0.462515 0.538526 0.374606
217 1 0.456364 0.531078 0.343735
218 1 0.450066 0.517942 0.351591
219 1 0.448708 0.513376 0.390178
499 3 0.479186 0.496331 0.285027
500 2 0.476344 0.50169 0.261115
553 3 0.480835 0.511191 0.218414
554 2 0.47913 0.516455 0.193495
593 2 0.508828 0.507965 0.36391
605 2 0.486926 0.4997 0.374638
555 2 0.487737 0.516358 0.234921
18 1 0.497432 0.554308 0.282879
19 1 0.492431 0.553936 0.321078
30 1 0.492892 0.5536 0.213789
31 1 0.487839 0.552851 0.25197
191 1 0.496941 0.554505 0.390718
603 2 0.50562 0.52568 0.226474
444 2 0.482105 0.513904 0.33918
2 1 0.550971 0.519155 0.286663
3 1 0.548502 0.523743 0.324822
4 1 0.540698 0.535948 0.331853
6 1 0.549442 0.523741 0.21775
7 1 0.546517 0.527801 0.255936
8 1 0.537222 0.538992 0.262742
9 1 0.53365 0.54247 0.300814
10 1 0.521186 0.550028 0.307515
15 1 0.529954 0.54525 0.231543
16 1 0.51688 0.551638 0.238377
162 1 0.551759 0.514593 0.355459
163 1 0.550036 0.519274 0.393695
164 1 0.543166 0.532055 0.400686
175 1 0.537048 0.539566 0.369977
176 1 0.52533 0.548183 0.376666
189 1 0.516421 0.552108 0.345781
442 3 0.488604 0.521272 0.329406
443 2 0.488795 0.52112 0.300002
601 3 0.502176 0.522363 0.252604
1 1 0.554646 0.505116 0.279143
5 1 0.554896 0.510314 0.210684
128 1 0.55553 0.500303 0.240753
17 1 0.511896 0.552846 0.276583
29 1 0.507512 0.554036 0.207194
190 1 0.502107 0.554731 0.352175
220 1 0.447242 0.498934 0.398206
228 1 0.494023 0.446099 0.585032
238 1 0.499 0.444638 0.515933
249 1 0.489695 0.446215 0.438791
200 1 0.446746 0.489493 0.582365
221 1 0.447362 0.493892 0.436746
210 1 0.448449 0.484493 0.513486
211 1 0.449771 0.479905 0.552136
212 1 0.456794 0.46727 0.559772
222 1 0.450726 0.479788 0.444865
223 1 0.452183 0.475118 0.483469
224 1 0.46022 0.463014 0.49128
225 1 0.463651 0.459832 0.529959
226 1 0.475648 0.451608 0.537899
227 1 0.480036 0.449774 0.576893
233 1 0.455066 0.471125 0.41444
234 1 0.46407 0.459775 0.422474
235 1 0.467723 0.456496 0.461117
236 1 0.480353 0.449235 0.46909
237 1 0.484729 0.447524 0.507582
461 2 0.487206 0.482949 0.560836
462 2 0.497071 0.478838 0.598202
490 3 0.492618 0.477661 0.415285
491 2 0.48614 0.485625 0.420284
492 2 0.497875 0.475458 0.439902
493 3 0.502615 0.499984 0.487
494 2 0.507699 0.503121 0.511096
498 2 0.470656 0.49694 0.420016
550 3 0.48138 0.48318 0.511255
551 2 0.479164 0.487618 0.485393
552 2 0.474608 0.475486 0.516503
540 2 0.508485 0.462721 0.476253
209 1 0.446462 0.498766 0.505456
239 1 0.50379 0.445096 0.554862
250 1 0.504183 0.444426 0.446544
251 1 0.509013 0.444658 0.485545
261 1 0.51383 0.445934 0.416122
240 1 0.518034 0.448204 0.562884
252 1 0.522957 0.448897 0.493609
253 1 0.527161 0.451674 0.53229
254 1 0.53851 0.460715 0.539736
255 1 0.541886 0.464671 0.578111
256 1 0.549004 0.477311 0.585781
262 1 0.5272 0.45153 0.423933
263 1 0.53127 0.454092 0.462616
264 1 0.541618 0.464396 0.470555
265 1 0.544354 0.468418 0.509087
266 1 0.550468 0.481577 0.516706
267 1 0.55189 0.486509 0.554948
273 1 0.547501 0.472211 0.440215
274 1 0.552658 0.485794 0.44779
463 3 0.522854 0.486589 0.417348
464 2 0.529148 0.492951 0.432401
465 2 0.517444 0.480678 0.436142
538 3 0.508765 0.473087 0.479024
539 2 0.511318 0.475581 0.506657
586 3 0.514551 0.48063 0.552035
587 2 0.519065 0.489562 0.543879
588 2 0.516476 0.478869 0.58051
607 3 0.52203 0.485834 0.337936
608 2 0.523916 0.485141 0.366795
609 2 0.530495 0.482875 0.322968
275 1 0.553015 0.491064 0.48611
279 1 0.554254 0.495408 0.417072
198 1 0.44698 0.50861 0.535818
199 1 0.445699 0.503958 0.574525
208 1 0.447168 0.503719 0.466949
172 1 0.473302 0.547592 0.582747
181 1 0.482364 0.551962 0.506067
182 1 0.469854 0.54481 0.513491
183 1 0.465748 0.541759 0.551927
184 1 0.455972 0.530908 0.559389
193 1 0.478146 0.549944 0.436667
194 1 0.466174 0.541862 0.444328
195 1 0.462761 0.538254 0.482884
196 1 0.454052 0.526636 0.490408
197 1 0.4514 0.522355 0.528588
205 1 0.459358 0.534955 0.413627
206 1 0.452007 0.522431 0.421267
207 1 0.450335 0.517779 0.459814
427 3 0.498009 0.525861 0.510426
428 2 0.493874 0.522793 0.484859
429 2 0.508298 0.527053 0.507298
469 3 0.489188 0.521871 0.433273
471 2 0.485085 0.530467 0.421373
495 2 0.500125 0.489914 0.489673
496 3 0.475959 0.497048 0.445328
497 2 0.481395 0.505905 0.447339
507 2 0.472071 0.508643 0.600739
565 3 0.480841 0.508382 0.54422
566 2 0.486068 0.51545 0.528444
567 2 0.482087 0.498965 0.53215
592 3 0.503349 0.505113 0.387593
170 1 0.491768 0.554112 0.536752
171 1 0.486734 0.553114 0.575306
180 1 0.487142 0.553359 0.467592
506 2 0.476077 0.492508 0.610908
146 1 0.548314 0.524443 0.538684
147 1 0.545992 0.528863 0.577014
148 1 0.536732 0.54004 0.584435
151 1 0.551828 0.51503 0.462596
152 1 0.546005 0.528377 0.469438
153 1 0.54315 0.532575 0.507704
154 1 0.532984 0.542945 0.514996
155 1 0.529036 0.546033 0.553553
156 1 0.515828 0.552206 0.560729
165 1 0.54019 0.536092 0.438857
166 1 0.52905 0.545536 0.445822
167 1 0.524755 0.548112 0.484261
177 1 0.520563 0.550097 0.414911
470 2 0.494882 0.516876 0.413081
475 3 0.494467 0.524102 0.600306
476 2 0.490932 0.517451 0.57999
477 2 0.494865 0.533697 0.588905
484 3 0.516161 0.517754 0.330202
485 2 0.506006 0.519835 0.327331
486 2 0.521511 0.522916 0.3096
520 3 0.52291 0.506095 0.537619
521 2 0.531501 0.510257 0.525847
522 2 0.522815 0.507881 0.566594
559 3 0.520953 0.5136 0.44662
560 2 0.513194 0.508774 0.460743
561 2 0.517237 0.518157 0.422343
594 2 0.508853 0.498246 0.403326
145 1 0.553137 0.510616 0.531549
268 1 0.553816 0.501033 0.562391
276 1 0.553784 0.505565 0.493338
280 1 0.5528 0.509913 0.424426
168 1 0.511147 0.553083 0.491143
169 1 0.506288 0.554099 0.529881
178 1 0.506466 0.553898 0.421794
179 1 0.501556 0.554441 0.460354
460 3 0.487265 0.480463 0.589397
216 1 0.488886 0.447514 0.653715
229 1 0.498738 0.446308 0.62362
389 1 0.48868 0.447894 0.761203
399 1 0.49359 0.446618 0.692254
188 1 0.444568 0.494485 0.651211
361 1 0.44487 0.494649 0.758241
371 1 0.445746 0.489777 0.689915
201 1 0.44747 0.484849 0.62092
202 1 0.453693 0.471639 0.628497
213 1 0.45987 0.463763 0.59852
214 1 0.471015 0.45439 0.606426
215 1 0.47509 0.451966 0.645344
362 1 0.448943 0.480774 0.76565
372 1 0.451165 0.476142 0.697585
373 1 0.453723 0.471956 0.735946
374 1 0.462994 0.460689 0.744254
375 1 0.466702 0.457942 0.783291
376 1 0.479364 0.450943 0.791655
385 1 0.456457 0.467652 0.667447
386 1 0.466483 0.457089 0.67525
387 1 0.47049 0.454272 0.713987
388 1 0.483724 0.448392 0.722389
422 2 0.480123 0.508437 0.878016
424 3 0.488733 0.476689 0.695319
425 2 0.479571 0.473056 0.685805
426 2 0.491555 0.484884 0.679004
487 3 0.498341 0.498224 0.655322
488 2 0.490643 0.50226 0.639112
489 2 0.506093 0.505139 0.657485
576 2 0.503317 0.495567 0.717236
230 1 0.513078 0.448036 0.631696
390 1 0.503143 0.446545 0.769358
400 1 0.50807 0.446869 0.700416
401 1 0.513019 0.447397 0.738947
574 3 0.499303 0.502039 0.737303
241 1 0.522415 0.450847 0.601207
242 1 0.534931 0.4581 0.608886
243 1 0.538724 0.461255 0.647428
244 1 0.54713 0.473074 0.655152
257 1 0.550732 0.482057 0.624324
402 1 0.52672 0.452312 0.746781
403 1 0.530909 0.454872 0.785123
404 1 0.5414 0.46506 0.792597
409 1 0.517701 0.449316 0.670163
410 1 0.531005 0.455106 0.678041
411 1 0.534895 0.457901 0.716388
412 1 0.544229 0.46906 0.724106
413 1 0.546517 0.473516 0.762274
414 1 0.551328 0.487198 0.769734
417 1 0.548877 0.477651 0.693522
508 3 0.516366 0.481512 0.630301
509 2 0.522173 0.477309 0.651638
510 2 0.509059 0.487617 0.64223
516 2 0.521755 0.480597 0.81467
580 3 0.490276 0.479358 0.779732
581 2 0.490992 0.475947 0.752015
582 2 0.484221 0.487829 0.780577
613 3 0.516439 0.480911 0.70891
614 2 0.507647 0.475347 0.707557
615 2 0.520077 0.480822 0.736468
258 1 0.553577 0.496261 0.631764
418 1 0.552452 0.491756 0.701015
419 1 0.552894 0.49683 0.739346
505 3 0.474379 0.501956 0.622329
187 1 0.44467 0.50908 0.643519
348 1 0.443874 0.504506 0.788548
360 1 0.444315 0.49949 0.719954
160 1 0.477396 0.549614 0.651589
173 1 0.469009 0.544714 0.621015
174 1 0.458192 0.534938 0.628345
185 1 0.452699 0.526975 0.597788
186 1 0.446674 0.51375 0.604971
332 1 0.48148 0.551449 0.721027
333 1 0.476906 0.549454 0.759154
334 1 0.464584 0.541744 0.766535
343 1 0.472611 0.547434 0.689908
344 1 0.461066 0.538637 0.697413
345 1 0.457421 0.535177 0.73575
346 1 0.449292 0.523086 0.743253
347 1 0.447036 0.51872 0.781448
357 1 0.454723 0.531229 0.666669
358 1 0.447266 0.51873 0.674047
359 1 0.445684 0.514013 0.712862
459 2 0.504507 0.490187 0.851419
517 3 0.492998 0.5232 0.783148
518 2 0.501335 0.524781 0.800208
519 2 0.49564 0.517133 0.760433
535 3 0.474156 0.502536 0.787701
537 2 0.479276 0.511517 0.79132
598 3 0.474439 0.504769 0.70357
599 2 0.484323 0.503025 0.711436
600 2 0.473473 0.503575 0.67448
610 3 0.493349 0.524695 0.681288
611 2 0.493271 0.523408 0.652103
612 2 0.483859 0.522726 0.692063
158 1 0.496299 0.554643 0.605919
159 1 0.491353 0.553893 0.644378
320 1 0.486096 0.552857 0.789686
331 1 0.495779 0.554362 0.713581
575 2 0.50679 0.505025 0.755934
142 1 0.550389 0.520229 0.607779
143 1 0.548073 0.524819 0.646472
144 1 0.539889 0.536872 0.653492
149 1 0.532699 0.543272 0.622575
150 1 0.519964 0.55037 0.629767
291 1 0.551474 0.516406 0.78482
292 1 0.545605 0.529687 0.791665
302 1 0.551441 0.515834 0.677302
303 1 0.549988 0.520799 0.715565
304 1 0.543091 0.533603 0.722608
305 1 0.539769 0.537429 0.760571
306 1 0.528206 0.546253 0.767503
315 1 0.536303 0.540598 0.691893
316 1 0.524096 0.548576 0.698627
317 1 0.519479 0.550528 0.736885
329 1 0.515098 0.552 0.668003
481 3 0.520009 0.513761 0.610703
482 2 0.51051 0.517778 0.606567
483 2 0.522682 0.514732 0.638997
514 3 0.518283 0.484237 0.788915
571 3 0.522057 0.510503 0.774719
572 2 0.521205 0.515662 0.800156
573 2 0.522289 0.500259 0.780009
595 3 0.518979 0.515432 0.688432
596 2 0.510659 0.521499 0.692889
597 2 0.5244 0.514601 0.713436
141 1 0.553744 0.506046 0.600771
301 1 0.553455 0.501444 0.670298
420 1 0.552359 0.511379 0.746363
157 1 0.510828 0.553311 0.598936
318 1 0.505492 0.55415 0.744065
319 1 0.500484 0.554492 0.782247
330 1 0.500842 0.554381 0.67533
356 1 0.490336 0.456608 0.974235
368 1 0.49351 0.449862 0.907579
369 1 0.498856 0.450843 0.945397
378 1 0.498205 0.447161 0.838728
328 1 0.44024 0.495066 0.97076
340 1 0.443397 0.490245 0.903033
341 1 0.443708 0.485595 0.941426
342 1 0.451337 0.473549 0.95013
350 1 0.446373 0.485508 0.834388
351 1 0.44745 0.48099 0.873055
352 1 0.455061 0.468744 0.88178
353 1 0.458227 0.465716 0.920742
354 1 0.470664 0.458463 0.928967
355 1 0.476702 0.460503 0.965419
363 1 0.4509 0.476532 0.804281
364 1 0.45921 0.464762 0.813174
365 1 0.462448 0.461631 0.852142
366 1 0.474635 0.453848 0.860747
367 1 0.479361 0.453001 0.899302
377 1 0.483857 0.449781 0.830464
421 3 0.473228 0.501027 0.87107
423 2 0.468911 0.503224 0.845032
430 3 0.482239 0.482598 0.0228334
431 2 0.478161 0.486247 0.997808
432 2 0.492106 0.485822 0.0252863
433 3 0.491038 0.48205 0.903862
434 2 0.490078 0.487183 0.92931
435 2 0.483332 0.484848 0.885716
458 2 0.491883 0.494309 0.821405
526 3 0.500127 0.49782 0.964687
527 2 0.494503 0.50448 0.98079
528 2 0.505082 0.50303 0.943404
349 1 0.443467 0.499752 0.826781
370 1 0.513251 0.449606 0.952109
379 1 0.503252 0.447763 0.877161
391 1 0.507989 0.447129 0.808246
380 1 0.517798 0.449308 0.884675
381 1 0.523267 0.450549 0.92254
382 1 0.53656 0.456766 0.928828
383 1 0.541942 0.459737 0.965742
384 1 0.549108 0.472216 0.973965
392 1 0.522157 0.450529 0.815587
393 1 0.526777 0.452463 0.853555
394 1 0.538724 0.460976 0.860381
395 1 0.542729 0.464374 0.898492
396 1 0.549208 0.477437 0.906131
397 1 0.551001 0.48213 0.944434
405 1 0.544142 0.469273 0.830598
406 1 0.549886 0.482521 0.838326
407 1 0.551239 0.487338 0.876694
523 3 0.525321 0.510692 0.0195334
524 2 0.533121 0.512607 0.0382641
525 2 0.519852 0.502483 0.0289844
532 3 0.517865 0.477494 0.966931
533 2 0.510913 0.485251 0.966739
534 2 0.512897 0.468372 0.964692
577 3 0.517492 0.482152 0.881828
578 2 0.524851 0.478778 0.900335
579 2 0.508091 0.480345 0.893424
398 1 0.552098 0.496545 0.952495
415 1 0.552184 0.492151 0.808077
408 1 0.552354 0.501835 0.884542
327 1 0.43985 0.509499 0.963271
338 1 0.443738 0.509601 0.857434
339 1 0.442404 0.504882 0.895874
300 1 0.47432 0.553724 0.970346
312 1 0.472106 0.547813 0.903938
313 1 0.466776 0.546667 0.941136
314 1 0.455554 0.53713 0.948864
321 1 0.481426 0.551066 0.828005
322 1 0.468752 0.543987 0.835536
323 1 0.464481 0.541356 0.8739
324 1 0.453944 0.531353 0.881311
325 1 0.450323 0.527892 0.919901
326 1 0.443408 0.514735 0.926333
335 1 0.461041 0.53822 0.804812
336 1 0.451601 0.527261 0.812445
337 1 0.448967 0.523048 0.850438
448 3 0.490168 0.5213 0.897137
449 2 0.49604 0.527284 0.914591
450 2 0.494843 0.520219 0.871032
466 3 0.484497 0.521465 0.989844
467 2 0.493996 0.524176 0.980513
468 2 0.477819 0.529236 0.984549
529 3 0.471494 0.498807 0.952782
530 2 0.47547 0.50819 0.958872
531 2 0.469915 0.497981 0.923804
536 2 0.470775 0.501839 0.759952
298 1 0.495069 0.556284 0.928283
299 1 0.48844 0.557637 0.965011
310 1 0.490774 0.553886 0.858802
311 1 0.485778 0.553484 0.897219
457 3 0.49996 0.497996 0.836785
282 1 0.548204 0.521116 0.930282
283 1 0.546242 0.526886 0.967792
284 1 0.539504 0.539821 0.972533
286 1 0.54712 0.525438 0.860935
287 1 0.544271 0.529821 0.898818
288 1 0.535538 0.541583 0.905349
289 1 0.532302 0.5463 0.94257
290 1 0.520249 0.55444 0.949807
293 1 0.542392 0.533662 0.829972
294 1 0.531936 0.54406 0.836674
295 1 0.527825 0.547579 0.874799
296 1 0.514701 0.553826 0.88222
307 1 0.5237 0.548828 0.80569
472 3 0.510365 0.525592 0.965435
473 2 0.515275 0.521463 0.988605
474 2 0.517147 0.526929 0.943432
511 3 0.512699 0.521067 0.843054
512 2 0.50733 0.512229 0.839515
513 2 0.51864 0.520341 0.867126
515 2 0.50808 0.482314 0.78652
547 3 0.521711 0.506788 0.909914
548 2 0.519615 0.498559 0.892881
549 2 0.52698 0.503664 0.933704
281 1 0.551673 0.506847 0.923308
285 1 0.551819 0.511678 0.853886
416 1 0.552981 0.506777 0.81553
297 1 0.5098 0.556104 0.920811
308 1 0.510089 0.553562 0.812669
309 1 0.505141 0.554656 0.851311
ITEM: TIMESTEP
2000
ITEM: NUMBER OF ATOMS
615
ITEM: BOX BOUNDS pp pp pp
-4.8000000000000000e+01 4.8000000000000000e+01
-4.8000000000000000e+01 4.8000000000000000e+01
-3.8550000000000001e-01 3.3614500000000000e+01
ITEM: ATOMS id type xs ys zs
98 1 0.500213 0.441009 0.193888
109 1 0.490837 0.440399 0.115907
119 1 0.496002 0.438908 0.0463019
81 1 0.451895 0.488112 0.108105
91 1 0.452777 0.481452 0.0397531
70 1 0.451358 0.480096 0.186645
82 1 0.453275 0.473894 0.118024
83 1 0.454476 0.470157 0.157534
84 1 0.46186 0.457934 0.167172
92 1 0.454224 0.467274 0.049742
93 1 0.456563 0.463977 0.0891181
94 1 0.465054 0.452378 0.0984189
95 1 0.468879 0.450432 0.137587
96 1 0.481451 0.443553 0.146472
97 1 0.485962 0.442943 0.185529
105 1 0.457507 0.457216 0.021253
106 1 0.46735 0.446747 0.0298253
107 1 0.472402 0.44539 0.06844
108 1 0.486036 0.440466 0.076642
445 3 0.482264 0.482022 0.205887
503 2 0.482435 0.479431 0.100167
504 2 0.496299 0.481149 0.127569
590 2 0.490701 0.496242 0.0778198
502 3 0.486181 0.483469 0.125131
69 1 0.450482 0.494362 0.177032
80 1 0.453282 0.491964 0.0686893
446 2 0.479733 0.481355 0.177419
447 2 0.482606 0.492039 0.213903
430 3 0.483232 0.477709 0.0484583
432 2 0.485553 0.484027 0.0260116
110 1 0.505305 0.440306 0.124316
111 1 0.509998 0.441476 0.163153
120 1 0.510392 0.440285 0.0549084
121 1 0.514952 0.442133 0.0937478
112 1 0.523651 0.446328 0.171065
122 1 0.528033 0.44854 0.101585
123 1 0.531859 0.451578 0.140324
124 1 0.541629 0.462273 0.148114
125 1 0.544396 0.466443 0.186675
126 1 0.550459 0.479623 0.194412
129 1 0.520169 0.442433 0.0249313
130 1 0.53251 0.450001 0.032473
131 1 0.535873 0.454438 0.0707696
132 1 0.544611 0.466196 0.0787977
133 1 0.546612 0.470687 0.117481
134 1 0.55184 0.484312 0.125668
137 1 0.549615 0.475258 0.0497027
562 3 0.513413 0.475923 0.121464
563 2 0.513272 0.472069 0.148786
564 2 0.518661 0.48492 0.121244
583 3 0.510569 0.472329 0.0468427
584 2 0.500172 0.472565 0.0451632
585 2 0.513457 0.471405 0.0749813
135 1 0.552948 0.489145 0.164068
138 1 0.554274 0.488977 0.0576715
139 1 0.554351 0.494029 0.095814
441 2 0.517508 0.487379 0.193278
542 2 0.498267 0.476396 0.197823
541 3 0.508045 0.472808 0.197362
589 3 0.493983 0.504551 0.0626949
591 2 0.492182 0.50307 0.0340297
68 1 0.452167 0.498395 0.137688
41 1 0.485961 0.548486 0.177289
42 1 0.47351 0.540886 0.183213
52 1 0.4894 0.547464 0.0693765
53 1 0.483762 0.545474 0.107153
54 1 0.472385 0.53629 0.113398
55 1 0.467594 0.533544 0.151656
56 1 0.459079 0.521769 0.159183
63 1 0.48327 0.540298 0.0381326
64 1 0.472956 0.530265 0.0446309
65 1 0.467836 0.527777 0.0824785
66 1 0.460151 0.51548 0.090187
67 1 0.456268 0.512171 0.128779
77 1 0.469513 0.521176 0.0142851
78 1 0.462518 0.508779 0.0222537
79 1 0.45791 0.505609 0.0601297
556 3 0.491113 0.512857 0.139837
557 2 0.493536 0.517101 0.113863
558 2 0.487925 0.503044 0.135783
479 2 0.505982 0.516488 0.0726404
40 1 0.491473 0.550179 0.139535
51 1 0.502873 0.55316 0.0646652
554 2 0.485956 0.512195 0.1887
21 1 0.556574 0.498748 0.0279516
480 2 0.513499 0.531708 0.0695907
11 1 0.55334 0.513412 0.14124
12 1 0.548737 0.527168 0.148266
13 1 0.545376 0.531293 0.186354
14 1 0.535896 0.542297 0.192791
22 1 0.556296 0.513186 0.034371
23 1 0.554023 0.518396 0.0720141
24 1 0.548267 0.531882 0.0788041
25 1 0.544439 0.535643 0.117114
26 1 0.533797 0.545633 0.123746
27 1 0.528612 0.548027 0.161259
35 1 0.543257 0.540498 0.0484333
36 1 0.531818 0.549456 0.0550847
37 1 0.526046 0.550713 0.0923316
49 1 0.523685 0.554486 0.0242822
439 3 0.52246 0.496329 0.198842
454 3 0.513488 0.521344 0.179988
455 2 0.517933 0.51216 0.185911
456 2 0.505265 0.519881 0.162414
478 3 0.51294 0.522868 0.0850679
568 3 0.524038 0.501124 0.121637
569 2 0.520655 0.510768 0.115957
570 2 0.526293 0.500279 0.150252
136 1 0.553953 0.503628 0.171652
140 1 0.554731 0.508627 0.102903
28 1 0.514778 0.552715 0.166679
38 1 0.511673 0.553705 0.0973307
39 1 0.505751 0.553262 0.134626
50 1 0.509094 0.554922 0.0280378
523 3 0.524312 0.496133 0.0445642
524 2 0.526736 0.499705 0.0713325
525 2 0.519556 0.486907 0.0470392
76 1 0.489852 0.444473 0.33259
88 1 0.495065 0.442528 0.263334
89 1 0.499681 0.442848 0.302333
259 1 0.494445 0.444285 0.371544
48 1 0.447518 0.491978 0.324874
60 1 0.449491 0.486178 0.255567
231 1 0.447823 0.48763 0.364311
61 1 0.449906 0.482046 0.295204
62 1 0.455642 0.468893 0.304888
71 1 0.452241 0.476211 0.226238
72 1 0.458734 0.463472 0.23608
73 1 0.461588 0.460522 0.275416
74 1 0.472423 0.451152 0.284651
75 1 0.476295 0.449254 0.323846
85 1 0.465104 0.455382 0.206509
86 1 0.476882 0.447196 0.215671
87 1 0.481134 0.44604 0.254767
232 1 0.452601 0.474082 0.373874
245 1 0.458022 0.465396 0.344216
246 1 0.467917 0.454998 0.353636
247 1 0.471639 0.452766 0.392844
248 1 0.484754 0.44674 0.401712
501 2 0.48628 0.491339 0.287406
544 3 0.49044 0.476272 0.34648
546 2 0.487887 0.474784 0.374684
604 3 0.476414 0.50391 0.364678
606 2 0.474653 0.500838 0.337017
437 2 0.489658 0.474738 0.252694
499 3 0.479552 0.499288 0.288009
605 2 0.486262 0.501732 0.372032
220 1 0.446384 0.497661 0.394326
543 2 0.510534 0.469083 0.223914
90 1 0.514025 0.444542 0.310373
99 1 0.50491 0.441787 0.232787
260 1 0.508866 0.444443 0.379801
452 2 0.510425 0.488815 0.275732
100 1 0.518976 0.445054 0.240771
101 1 0.523255 0.447517 0.279493
102 1 0.535336 0.455508 0.287053
103 1 0.53893 0.459033 0.325836
104 1 0.547203 0.470959 0.333139
113 1 0.527778 0.449092 0.209802
114 1 0.538631 0.458689 0.217441
115 1 0.541768 0.46259 0.256034
116 1 0.548854 0.475227 0.263595
117 1 0.550597 0.479948 0.302135
127 1 0.551753 0.484424 0.232884
269 1 0.518517 0.446334 0.349174
270 1 0.531493 0.45283 0.356826
271 1 0.535133 0.45626 0.395454
277 1 0.549147 0.475763 0.371611
436 3 0.497156 0.475695 0.272932
438 2 0.493163 0.473931 0.299637
451 3 0.517043 0.496832 0.273855
545 2 0.500626 0.478333 0.344473
118 1 0.553013 0.494245 0.309473
278 1 0.552664 0.489924 0.378631
607 3 0.517197 0.480184 0.342566
608 2 0.51973 0.481049 0.370991
609 2 0.525713 0.477874 0.326934
594 2 0.504516 0.491738 0.399377
47 1 0.448105 0.50636 0.315501
58 1 0.450813 0.504569 0.206669
59 1 0.449113 0.500498 0.245974
20 1 0.478429 0.548082 0.323384
32 1 0.475706 0.544638 0.253335
33 1 0.470902 0.542362 0.2918
34 1 0.460423 0.53227 0.298873
43 1 0.468817 0.538202 0.221607
44 1 0.459267 0.527268 0.22886
45 1 0.455753 0.523767 0.267763
46 1 0.450045 0.510498 0.276188
57 1 0.455452 0.518243 0.197967
192 1 0.481961 0.550623 0.393415
203 1 0.473727 0.545956 0.361895
204 1 0.462409 0.536843 0.368916
217 1 0.456687 0.528938 0.337767
218 1 0.449879 0.51615 0.345944
219 1 0.44798 0.511966 0.385307
500 2 0.479056 0.503671 0.261365
553 3 0.485415 0.509164 0.216797
555 2 0.49178 0.515051 0.2331
18 1 0.497731 0.553249 0.279295
19 1 0.492229 0.55282 0.317278
30 1 0.494403 0.551939 0.209451
31 1 0.488862 0.55089 0.247217
191 1 0.496155 0.553721 0.387076
444 2 0.486158 0.51697 0.333995
442 3 0.495061 0.522159 0.329686
443 2 0.496314 0.523986 0.300948
440 2 0.523355 0.497608 0.227922
453 2 0.519305 0.500269 0.300874
602 2 0.511141 0.513663 0.261487
161 1 0.553164 0.499448 0.347675
593 2 0.508571 0.504159 0.368623
603 2 0.508556 0.525243 0.227071
2 1 0.549961 0.5181 0.285878
3 1 0.547854 0.522892 0.323858
4 1 0.539947 0.5351 0.33058
6 1 0.549164 0.5225 0.217177
7 1 0.546433 0.526983 0.255151
8 1 0.537759 0.538629 0.261654
9 1 0.53337 0.541842 0.299402
10 1 0.521011 0.549471 0.305491
15 1 0.530986 0.545032 0.230415
16 1 0.517866 0.55137 0.236129
162 1 0.551071 0.513864 0.354642
163 1 0.549471 0.519052 0.392543
175 1 0.536193 0.538927 0.368367
176 1 0.5244 0.547454 0.374552
189 1 0.515835 0.551221 0.343217
601 3 0.505875 0.522275 0.254229
1 1 0.552951 0.503883 0.278788
5 1 0.55305 0.508535 0.209937
128 1 0.553389 0.498837 0.240424
17 1 0.512325 0.552516 0.273775
29 1 0.508954 0.553157 0.204133
190 1 0.501468 0.553697 0.349035
592 3 0.501531 0.500909 0.388264
484 3 0.519754 0.511694 0.338923
485 2 0.511251 0.517438 0.333868
486 2 0.527588 0.517907 0.347172
228 1 0.493078 0.447166 0.588365
238 1 0.498298 0.445465 0.518757
249 1 0.489215 0.445866 0.440915
200 1 0.445632 0.489855 0.581985
221 1 0.4465 0.493219 0.433771
210 1 0.447895 0.484534 0.51259
211 1 0.449144 0.480355 0.552025
212 1 0.456298 0.467888 0.561623
222 1 0.450127 0.479326 0.44313
223 1 0.451819 0.475249 0.482567
224 1 0.459958 0.463408 0.492031
225 1 0.463031 0.460316 0.531591
226 1 0.474866 0.4521 0.540786
227 1 0.479053 0.450576 0.580079
233 1 0.454663 0.470241 0.413264
234 1 0.463784 0.459147 0.422736
235 1 0.467294 0.456491 0.462093
236 1 0.479787 0.449291 0.471139
237 1 0.484074 0.448042 0.510412
461 2 0.491363 0.48045 0.557438
462 2 0.499688 0.478795 0.599061
490 3 0.490001 0.477154 0.425967
491 2 0.484392 0.48588 0.428664
492 2 0.495536 0.475617 0.450501
498 2 0.47311 0.502571 0.418826
550 3 0.480296 0.484985 0.511615
551 2 0.477869 0.489694 0.486291
552 2 0.473294 0.477543 0.517321
209 1 0.445593 0.498715 0.503265
496 3 0.476553 0.500317 0.445846
567 2 0.478966 0.501096 0.530446
460 3 0.490288 0.478968 0.586392
213 1 0.459295 0.464787 0.60119
272 1 0.544659 0.467257 0.40268
493 3 0.502666 0.501171 0.486986
540 2 0.504987 0.464824 0.495364
239 1 0.502927 0.446243 0.557761
250 1 0.503587 0.444469 0.449248
251 1 0.508236 0.445148 0.488193
261 1 0.513414 0.445724 0.418663
240 1 0.517106 0.44915 0.565381
252 1 0.522174 0.449284 0.49585
253 1 0.526135 0.452461 0.53441
254 1 0.537244 0.461838 0.541311
255 1 0.540394 0.466135 0.579324
256 1 0.547609 0.478808 0.585961
262 1 0.526898 0.450991 0.42626
263 1 0.530743 0.454 0.464981
264 1 0.540901 0.464422 0.472069
265 1 0.543277 0.469148 0.510211
266 1 0.549253 0.482422 0.516852
267 1 0.550527 0.48774 0.554772
273 1 0.546713 0.472125 0.441058