ITEM: TIMESTEP
1000
ITEM: NUMBER OF ATOMS
615
ITEM: BOX BOUNDS pp pp pp
-4.0000000000000000e+01 4.0000000000000000e+01
-4.0000000000000000e+01 4.0000000000000000e+01
-3.8550000000000001e-01 3.3614500000000000e+01
ITEM: ATOMS id type xs ys zs
84 1 0.451487 0.457662 0.169914
94 1 0.455087 0.452956 0.101281
95 1 0.459795 0.449282 0.139467
106 1 0.456709 0.447563 0.0339782
105 1 0.445003 0.460344 0.0269199
96 1 0.47448 0.439841 0.146851
97 1 0.480088 0.438091 0.185447
98 1 0.497144 0.43496 0.192899
107 1 0.463501 0.444726 0.0708434
108 1 0.479401 0.436962 0.077916
109 1 0.485371 0.43557 0.116334
110 1 0.50285 0.434017 0.123961
111 1 0.50878 0.435155 0.162278
112 1 0.52543 0.440114 0.169826
119 1 0.491498 0.434329 0.0484835
120 1 0.508862 0.433927 0.0561036
121 1 0.514838 0.435374 0.0940111
122 1 0.531211 0.441717 0.101188
123 1 0.536069 0.445247 0.139429
129 1 0.520593 0.436057 0.0265815
130 1 0.536509 0.44282 0.03396
504 2 0.509854 0.468203 0.0665247
124 1 0.549307 0.456726 0.146956
131 1 0.541678 0.447615 0.0710043
132 1 0.554094 0.460338 0.0781159
56 1 0.444076 0.533977 0.170144
66 1 0.440919 0.528946 0.101325
67 1 0.438944 0.523339 0.139629
68 1 0.435329 0.50622 0.147011
69 1 0.435234 0.500229 0.185562
70 1 0.437629 0.483014 0.19294
78 1 0.43681 0.525119 0.0339707
79 1 0.436271 0.518051 0.0709487
80 1 0.434413 0.500492 0.0779497
81 1 0.435293 0.494558 0.116403
82 1 0.439499 0.477606 0.124067
83 1 0.441887 0.472122 0.162375
91 1 0.435218 0.488078 0.0485741
92 1 0.440507 0.471541 0.0562247
93 1 0.444362 0.466702 0.0940679
439 3 0.526901 0.511583 0.172417
440 2 0.534179 0.513353 0.148871
441 2 0.532001 0.517238 0.195743
445 3 0.498467 0.471941 0.153442
446 2 0.488741 0.478918 0.161922
447 2 0.495603 0.465958 0.128512
454 3 0.495535 0.526255 0.160218
455 2 0.493256 0.531911 0.134543
456 2 0.507426 0.522412 0.160917
478 3 0.489557 0.526274 0.0811063
479 2 0.48401 0.532493 0.0591847
480 2 0.484287 0.515003 0.0839399
502 3 0.497695 0.469492 0.0726415
503 2 0.491025 0.468119 0.0479778
556 3 0.475391 0.498302 0.164752
557 2 0.480515 0.509675 0.166676
558 2 0.46945 0.497187 0.139008
562 3 0.525975 0.485039 0.114835
563 2 0.517525 0.477774 0.128161
564 2 0.525302 0.49662 0.12579
568 3 0.5234 0.518844 0.0841508
569 2 0.525692 0.509887 0.0643561
570 2 0.511067 0.520675 0.0862262
583 3 0.528721 0.489027 0.0376368
584 2 0.528531 0.486659 0.0665127
585 2 0.524332 0.479115 0.0229925
589 3 0.475099 0.492936 0.0864355
590 2 0.484072 0.48463 0.0803299
591 2 0.468727 0.495579 0.0619081
11 1 0.563351 0.517459 0.139446
12 1 0.55668 0.533706 0.146876
21 1 0.568868 0.4993 0.027233
22 1 0.566074 0.516477 0.0339743
23 1 0.56211 0.522899 0.0706291
24 1 0.553542 0.538414 0.0777389
125 1 0.552641 0.461786 0.185471
126 1 0.560848 0.477147 0.192977
133 1 0.556442 0.465994 0.116501
134 1 0.562797 0.482346 0.124197
135 1 0.564137 0.488428 0.162453
136 1 0.565525 0.505847 0.170042
137 1 0.561533 0.470634 0.0490774
138 1 0.566164 0.487485 0.0565003
139 1 0.565282 0.493954 0.0940979
140 1 0.564531 0.511448 0.101183
77 1 0.445308 0.54015 0.0267554
54 1 0.459087 0.551905 0.123984
55 1 0.454618 0.547872 0.162462
64 1 0.454296 0.54815 0.0560079
65 1 0.450425 0.543586 0.0940161
26 1 0.536148 0.554288 0.124047
27 1 0.530968 0.557486 0.162331
28 1 0.514683 0.563898 0.169812
36 1 0.531452 0.558187 0.0562431
37 1 0.525628 0.560067 0.0941225
38 1 0.508868 0.564962 0.101235
39 1 0.502907 0.565457 0.139388
40 1 0.48543 0.564134 0.14674
41 1 0.479683 0.562589 0.185356
42 1 0.463944 0.555087 0.192935
49 1 0.521278 0.564623 0.0269183
50 1 0.504247 0.567786 0.0337372
51 1 0.49719 0.566301 0.07071
52 1 0.479851 0.562943 0.0776885
53 1 0.474216 0.560737 0.116182
63 1 0.468638 0.557842 0.0481326
13 1 0.553275 0.538606 0.185549
14 1 0.540805 0.55091 0.192842
25 1 0.549665 0.543099 0.11629
35 1 0.545335 0.54779 0.048471
73 1 0.45178 0.457488 0.277246
85 1 0.455577 0.453305 0.208358
246 1 0.459837 0.449049 0.3537
74 1 0.464815 0.446061 0.284741
75 1 0.469757 0.442669 0.323087
76 1 0.485949 0.43603 0.330691
86 1 0.46955 0.443095 0.216059
87 1 0.475052 0.440569 0.2544
88 1 0.49163 0.435744 0.261873
89 1 0.497628 0.434788 0.300084
90 1 0.515025 0.435722 0.307763
99 1 0.503201 0.435123 0.231378
100 1 0.520321 0.437946 0.238742
101 1 0.526213 0.439224 0.277064
113 1 0.530833 0.442841 0.208185
247 1 0.464388 0.445143 0.391968
248 1 0.480017 0.437241 0.399571
259 1 0.4917 0.434383 0.369242
260 1 0.509236 0.434506 0.37697
269 1 0.520774 0.437076 0.346273
270 1 0.536577 0.444454 0.35389
545 2 0.49361 0.459849 0.33906
102 1 0.541213 0.448069 0.284417
103 1 0.545561 0.451958 0.322989
114 1 0.544827 0.452999 0.215888
115 1 0.549006 0.457048 0.254264
271 1 0.541598 0.44789 0.392325
272 1 0.55353 0.460724 0.39969
44 1 0.447623 0.538412 0.239037
45 1 0.444851 0.533136 0.277415
46 1 0.438079 0.517175 0.284779
47 1 0.436601 0.511455 0.323259
48 1 0.435375 0.49408 0.330852
57 1 0.441559 0.528406 0.208582
58 1 0.436381 0.51183 0.216185
59 1 0.435765 0.505778 0.254447
60 1 0.436518 0.48853 0.261844
61 1 0.437837 0.482694 0.300147
62 1 0.444814 0.466797 0.307826
71 1 0.439555 0.477299 0.231427
72 1 0.447929 0.462083 0.238868
217 1 0.448225 0.537856 0.346345
218 1 0.439583 0.52279 0.353923
219 1 0.436616 0.517498 0.392261
220 1 0.434281 0.500087 0.399754
231 1 0.435801 0.488216 0.36939
232 1 0.441559 0.471681 0.376848
245 1 0.447849 0.461704 0.346211
436 3 0.522222 0.484843 0.289416
437 2 0.514503 0.478667 0.307417
438 2 0.518921 0.482704 0.261498
442 3 0.496129 0.52248 0.295735
443 2 0.489374 0.52369 0.271152
444 2 0.489582 0.526826 0.318608
451 3 0.522753 0.513191 0.345352
452 2 0.514295 0.517318 0.325996
453 2 0.53425 0.515389 0.335031
499 3 0.48238 0.483176 0.227855
500 2 0.494556 0.486004 0.227757
501 2 0.477243 0.486722 0.202373
541 3 0.513039 0.486966 0.214523
542 2 0.509412 0.479301 0.192915
543 2 0.520956 0.495491 0.203766
544 3 0.498 0.470119 0.325856
546 2 0.488434 0.477002 0.316048
553 3 0.47947 0.518074 0.231178
554 2 0.481718 0.505792 0.232565
555 2 0.484259 0.522682 0.206268
593 2 0.477603 0.493531 0.344054
601 3 0.524038 0.516694 0.25929
602 2 0.513361 0.522154 0.267593
603 2 0.523885 0.504665 0.267275
604 3 0.473443 0.490308 0.301118
605 2 0.461903 0.494714 0.29661
606 2 0.477987 0.485733 0.275921
1 1 0.5643 0.505819 0.277436
2 1 0.560565 0.522746 0.28483
3 1 0.557912 0.527949 0.32326
5 1 0.565016 0.51193 0.208643
6 1 0.55943 0.528493 0.216178
7 1 0.555816 0.533434 0.254499
104 1 0.555681 0.466164 0.330566
116 1 0.557978 0.471827 0.261743
117 1 0.560075 0.477093 0.300075
118 1 0.563696 0.494008 0.307718
127 1 0.562416 0.48289 0.231578
128 1 0.565198 0.500102 0.239034
161 1 0.564083 0.499708 0.346143
162 1 0.562043 0.516932 0.353845
163 1 0.561195 0.522818 0.39204
164 1 0.552901 0.538227 0.399493
277 1 0.55864 0.471273 0.369031
278 1 0.563581 0.487958 0.376606
485 2 0.522349 0.517013 0.398514
34 1 0.451865 0.542494 0.307918
43 1 0.459273 0.551369 0.231545
204 1 0.455593 0.546918 0.376892
10 1 0.525397 0.559872 0.307552
15 1 0.53562 0.554126 0.231354
16 1 0.519953 0.561807 0.238673
17 1 0.514247 0.563408 0.277062
18 1 0.497031 0.565394 0.284404
19 1 0.4913 0.565192 0.322974
20 1 0.474682 0.560151 0.330673
29 1 0.508636 0.564995 0.208238
30 1 0.491204 0.56518 0.21585
31 1 0.485297 0.56409 0.25427
32 1 0.46913 0.557885 0.261832
33 1 0.46449 0.554346 0.300211
176 1 0.530825 0.557482 0.376742
189 1 0.520168 0.56249 0.346114
190 1 0.5031 0.566013 0.353638
191 1 0.497213 0.566051 0.392254
192 1 0.47999 0.562839 0.399711
203 1 0.469436 0.557504 0.369238
4 1 0.548416 0.542497 0.330868
8 1 0.544628 0.546651 0.261804
9 1 0.540026 0.550543 0.300101
175 1 0.544595 0.546877 0.369305
224 1 0.450094 0.455924 0.492069
225 1 0.453462 0.450904 0.531067
234 1 0.454806 0.452225 0.422494
235 1 0.458617 0.447514 0.461148
212 1 0.44622 0.460503 0.561935
226 1 0.467922 0.440718 0.538754
227 1 0.473282 0.438321 0.577607
228 1 0.490489 0.434779 0.585107
236 1 0.473742 0.438435 0.468852
237 1 0.479221 0.436535 0.507852
238 1 0.496725 0.434688 0.515678
239 1 0.502487 0.435235 0.554497
240 1 0.519602 0.439103 0.56206
249 1 0.485479 0.435416 0.438242
250 1 0.503018 0.434692 0.44608
251 1 0.508693 0.435696 0.484954
252 1 0.525572 0.440512 0.492701
253 1 0.530763 0.443407 0.531483
261 1 0.514969 0.436057 0.415511
262 1 0.531582 0.4417 0.423078
263 1 0.536489 0.445312 0.461792
539 2 0.518821 0.477467 0.413144
254 1 0.545358 0.453281 0.539149
255 1 0.549592 0.457696 0.577702
264 1 0.550101 0.456556 0.469307
184 1 0.446982 0.5384 0.561953
196 1 0.443382 0.533877 0.492371
197 1 0.440103 0.528602 0.531251
198 1 0.434116 0.511846 0.538863
199 1 0.434481 0.505636 0.577638
200 1 0.43597 0.488112 0.585042
206 1 0.440329 0.52888 0.422684
207 1 0.437797 0.523358 0.461557
208 1 0.434123 0.505995 0.469079
209 1 0.433706 0.499802 0.507927
210 1 0.436683 0.482256 0.515549
211 1 0.43861 0.476426 0.554415
221 1 0.434555 0.494028 0.43834
222 1 0.438898 0.476919 0.445785
223 1 0.440982 0.471108 0.484468
233 1 0.44432 0.466314 0.415156
497 2 0.460243 0.495185 0.49507
427 3 0.494446 0.527516 0.52583
428 2 0.490206 0.528255 0.498217
429 2 0.493677 0.538752 0.53859
461 2 0.470612 0.483445 0.621642
462 2 0.488251 0.478864 0.643275
463 3 0.529303 0.512403 0.500448
464 2 0.524314 0.519125 0.478605
465 2 0.527759 0.51846 0.525919
470 2 0.502679 0.531623 0.372587
471 2 0.486615 0.525313 0.398235
475 3 0.505196 0.526213 0.662942
476 2 0.49341 0.522051 0.662808
477 2 0.508908 0.528375 0.635321
484 3 0.51901 0.515798 0.426712
486 2 0.520025 0.503816 0.434746
490 3 0.484036 0.478139 0.430917
491 2 0.480302 0.484113 0.406621
492 2 0.496398 0.476343 0.42982
493 3 0.501689 0.483625 0.514059
494 2 0.491287 0.488313 0.502045
495 2 0.50899 0.478924 0.492904
496 3 0.472209 0.496508 0.487157
498 2 0.474902 0.488377 0.465736
507 2 0.471507 0.517981 0.630021
520 3 0.51348 0.523238 0.588515
521 2 0.504564 0.523253 0.567902
522 2 0.519378 0.512217 0.588337
538 3 0.516807 0.475186 0.441671
540 2 0.523906 0.465573 0.450299
550 3 0.481626 0.479372 0.57299
551 2 0.48965 0.482376 0.551575
552 2 0.487523 0.472578 0.593411
559 3 0.486814 0.523525 0.450946
560 2 0.498347 0.521111 0.441131
561 2 0.48241 0.513535 0.465269
565 3 0.47443 0.511166 0.577743
566 2 0.480015 0.516787 0.554996
567 2 0.475644 0.498775 0.575115
586 3 0.525241 0.49244 0.569286
587 2 0.534895 0.494156 0.551045
588 2 0.515152 0.489105 0.553795
592 3 0.483329 0.496275 0.369389
594 2 0.492464 0.504538 0.364386
607 3 0.518586 0.482232 0.372984
608 2 0.508648 0.476956 0.360167
609 2 0.521857 0.492493 0.358056
469 3 0.490723 0.528024 0.371198
145 1 0.566311 0.512073 0.531073
146 1 0.561253 0.529113 0.53862
147 1 0.557966 0.53436 0.577501
151 1 0.564269 0.517481 0.460928
152 1 0.557154 0.533636 0.468562
256 1 0.560065 0.471842 0.585216
265 1 0.553749 0.461664 0.508137
266 1 0.562538 0.477019 0.51564
267 1 0.564936 0.482756 0.554491
268 1 0.567462 0.500267 0.562159
273 1 0.557062 0.46597 0.438158
274 1 0.563791 0.482255 0.445658
275 1 0.565694 0.488286 0.484396
276 1 0.566751 0.505899 0.492008
279 1 0.565175 0.493921 0.414937
280 1 0.564955 0.511437 0.422334
183 1 0.459194 0.551081 0.554518
194 1 0.459349 0.551336 0.445947
195 1 0.454654 0.547496 0.484822
205 1 0.450818 0.543017 0.415284
155 1 0.537057 0.555159 0.554164
156 1 0.520768 0.561821 0.561861
166 1 0.536208 0.554389 0.445752
167 1 0.531378 0.557646 0.484659
168 1 0.514932 0.563904 0.492518
169 1 0.509113 0.564825 0.531426
170 1 0.491536 0.565148 0.539073
171 1 0.485716 0.563492 0.577676
172 1 0.46933 0.55731 0.585119
177 1 0.525668 0.560055 0.415331
178 1 0.509041 0.56532 0.42291
179 1 0.503125 0.565855 0.461725
180 1 0.485547 0.564579 0.469304
181 1 0.47972 0.562995 0.508276
182 1 0.463843 0.555104 0.515699
193 1 0.474233 0.560819 0.438456
153 1 0.554503 0.539104 0.507529
148 1 0.546569 0.547907 0.584893
154 1 0.541945 0.551698 0.5152
165 1 0.549508 0.542971 0.438074
213 1 0.45 0.455968 0.600592
374 1 0.452886 0.451649 0.746188
375 1 0.457516 0.447292 0.784525
386 1 0.458203 0.448263 0.677494
385 1 0.446385 0.461132 0.669882
214 1 0.462716 0.443959 0.608204
215 1 0.468042 0.441618 0.646795
216 1 0.48473 0.436505 0.654403
229 1 0.496462 0.435015 0.623681
230 1 0.513813 0.437527 0.631055
241 1 0.525185 0.441259 0.600488
376 1 0.473149 0.438743 0.791798
387 1 0.462806 0.44484 0.716065
388 1 0.479013 0.438162 0.723309
389 1 0.484828 0.43603 0.761471
390 1 0.502452 0.434392 0.768441
399 1 0.490664 0.436246 0.692779
400 1 0.50813 0.436468 0.700127
401 1 0.514221 0.436661 0.738246
402 1 0.530968 0.442007 0.745397
403 1 0.536581 0.444629 0.783836
409 1 0.519551 0.439215 0.669434
410 1 0.535551 0.446332 0.676913
242 1 0.540467 0.44988 0.607975
243 1 0.54501 0.453601 0.646366
404 1 0.549884 0.456399 0.791376
411 1 0.540751 0.449096 0.715419
412 1 0.553256 0.461444 0.722998
185 1 0.443817 0.533356 0.600661
186 1 0.436853 0.517321 0.608092
187 1 0.435522 0.511592 0.646664
188 1 0.435075 0.494097 0.654252
201 1 0.437431 0.482456 0.623641
202 1 0.443676 0.466121 0.631192
346 1 0.439404 0.529238 0.745715
347 1 0.436166 0.523622 0.78398
348 1 0.432721 0.506066 0.791443
358 1 0.437799 0.523355 0.677144
359 1 0.435248 0.51783 0.715796
360 1 0.433372 0.50014 0.723109
361 1 0.433118 0.493833 0.761544
362 1 0.436667 0.47633 0.768909
371 1 0.435169 0.488177 0.692801
372 1 0.440106 0.471293 0.700403
373 1 0.441952 0.465453 0.73877
506 2 0.475932 0.503914 0.663229
460 3 0.476917 0.483891 0.647015
505 3 0.474964 0.516174 0.657964
425 2 0.478402 0.467086 0.7771
422 2 0.47256 0.47957 0.842223
424 3 0.481723 0.473665 0.800856
426 2 0.487141 0.484345 0.792426
459 2 0.501028 0.509327 0.848943
481 3 0.528398 0.503866 0.661965
482 2 0.519299 0.51236 0.664652
483 2 0.539058 0.508541 0.672684
487 3 0.483593 0.476509 0.721977
488 2 0.495832 0.47501 0.717147
489 2 0.47804 0.480331 0.697209
508 3 0.510381 0.474853 0.627875
509 2 0.515478 0.474335 0.654703
510 2 0.517688 0.481653 0.61017
514 3 0.523304 0.477486 0.791258
517 3 0.50018 0.532189 0.824913
518 2 0.501832 0.540934 0.80426
519 2 0.488576 0.527611 0.823002
535 3 0.471374 0.514638 0.822573
537 2 0.466639 0.504511 0.835733
571 3 0.527404 0.510458 0.826907
572 2 0.531824 0.509833 0.85438
573 2 0.520595 0.520856 0.823787
574 3 0.498088 0.499556 0.779208
575 2 0.508175 0.492557 0.773672
576 2 0.500103 0.511236 0.769863
580 3 0.506246 0.468193 0.857397
581 2 0.498278 0.467229 0.83485
582 2 0.501365 0.4626 0.88106
595 3 0.52653 0.510747 0.743255
596 2 0.51626 0.517827 0.74135
597 2 0.531117 0.511373 0.770575
598 3 0.470857 0.51134 0.741115
599 2 0.478102 0.501618 0.748263
600 2 0.466156 0.509614 0.714166
610 3 0.49849 0.529886 0.741614
611 2 0.500906 0.532699 0.713526
612 2 0.486138 0.528866 0.745433
613 3 0.517113 0.477351 0.706601
614 2 0.521866 0.474462 0.73294
615 2 0.521585 0.488425 0.697911
141 1 0.56693 0.506379 0.600735
142 1 0.562736 0.523503 0.60824
143 1 0.559654 0.52899 0.646617
244 1 0.55641 0.466858 0.654053
257 1 0.562245 0.4774 0.623668
258 1 0.566557 0.494419 0.631244
291 1 0.564533 0.51818 0.783988
292 1 0.557435 0.534461 0.791377
301 1 0.565959 0.500337 0.669774
302 1 0.563151 0.517688 0.677335
303 1 0.561045 0.52331 0.715743
413 1 0.557017 0.46627 0.761355
414 1 0.564779 0.482251 0.768614
417 1 0.559502 0.471696 0.692679
418 1 0.564815 0.488432 0.700303
419 1 0.566022 0.494343 0.738595
420 1 0.565027 0.511919 0.745813
357 1 0.44669 0.5386 0.66977
174 1 0.450879 0.542852 0.631206
334 1 0.458505 0.552151 0.76858
344 1 0.454398 0.547839 0.700196
345 1 0.44968 0.543715 0.738529
150 1 0.526239 0.560114 0.630928
157 1 0.51484 0.563141 0.600407
158 1 0.497453 0.564762 0.608013
159 1 0.491344 0.5648 0.64637
160 1 0.474345 0.560407 0.654132
173 1 0.46415 0.55423 0.6237
306 1 0.536844 0.556121 0.768643
316 1 0.531579 0.558702 0.700085
317 1 0.526088 0.561628 0.738415
318 1 0.509103 0.566444 0.745695
319 1 0.502973 0.567026 0.784179
320 1 0.485327 0.564986 0.791536
329 1 0.520565 0.562742 0.669334
330 1 0.503187 0.565732 0.676923
331 1 0.497025 0.566492 0.715482
332 1 0.47955 0.563568 0.722877
333 1 0.473686 0.561577 0.761364
343 1 0.468709 0.558261 0.692727
304 1 0.553068 0.538979 0.723038
144 1 0.550114 0.543722 0.654285
149 1 0.541642 0.551715 0.623445
305 1 0.549906 0.544126 0.76137
315 1 0.54568 0.548212 0.692604
353 1 0.450021 0.455873 0.921695
364 1 0.448619 0.455499 0.814816
365 1 0.453711 0.451479 0.853179
352 1 0.446373 0.460936 0.883343
354 1 0.463545 0.444082 0.928754
355 1 0.469316 0.439293 0.965612
356 1 0.485629 0.433166 0.972243
366 1 0.468314 0.441154 0.860314
367 1 0.474247 0.438736 0.898384
368 1 0.491272 0.433768 0.905163
369 1 0.497587 0.432331 0.942778
370 1 0.51506 0.433259 0.950082
377 1 0.479211 0.435895 0.829949
378 1 0.496815 0.432818 0.837045
379 1 0.503309 0.43302 0.875186
380 1 0.520878 0.435978 0.882701
381 1 0.52695 0.437624 0.921005
391 1 0.508862 0.43383 0.80674
392 1 0.526057 0.438457 0.814068
393 1 0.531869 0.440918 0.852559
382 1 0.542097 0.447101 0.928088
383 1 0.54807 0.450987 0.965071
394 1 0.546301 0.451462 0.859866
395 1 0.550475 0.455922 0.898083
405 1 0.554137 0.460977 0.82979
325 1 0.441614 0.534032 0.921475
326 1 0.433868 0.517842 0.928336
327 1 0.431541 0.511051 0.965452
328 1 0.432174 0.493674 0.972483
336 1 0.441843 0.53448 0.814132
337 1 0.439274 0.528735 0.852664
338 1 0.433824 0.51173 0.859758
339 1 0.432444 0.505787 0.898053
340 1 0.434075 0.488145 0.905126
341 1 0.435141 0.481957 0.942991
342 1 0.44194 0.465794 0.950545
349 1 0.432586 0.499557 0.829727
350 1 0.434775 0.481891 0.837319
351 1 0.437586 0.476365 0.875609
363 1 0.438564 0.470211 0.807371
534 2 0.502918 0.470108 0.989332
421 3 0.470729 0.486432 0.866426
423 2 0.479629 0.495171 0.86835
430 3 0.479762 0.473689 0.00222484
431 2 0.476784 0.4856 1.00775
432 2 0.469645 0.466497 0.00570358
433 3 0.487234 0.470324 0.923393
434 2 0.484821 0.47346 0.951292
435 2 0.479625 0.47667 0.905463
448 3 0.468346 0.503902 0.942137
450 2 0.464218 0.50192 0.91477
457 3 0.498501 0.502813 0.87333
458 2 0.503986 0.491601 0.871721
466 3 0.482562 0.531315 -0.00112354
467 2 0.494838 0.529878 0.00327892
472 3 0.514568 0.525921 0.0109361
473 2 0.523418 0.522221 0.992075
474 2 0.519571 0.527335 0.0376831
511 3 0.494169 0.528908 0.922519
512 2 0.492679 0.517514 0.910939
513 2 0.489478 0.537466 0.904142
515 2 0.518008 0.471876 0.814398
523 3 0.534222 0.505133 0.973942
524 2 0.532783 0.496114 0.953862
525 2 0.532513 0.500367 1.00083
526 3 0.49803 0.500002 0.976264
527 2 0.501999 0.511702 0.980731
528 2 0.507 0.491965 0.984144
529 3 0.464929 0.504929 0.0171635
530 2 0.460178 0.500497 0.992037
531 2 0.470982 0.51563 0.0118514
532 3 0.515363 0.469959 0.986605
533 2 0.518452 0.471689 0.958397
536 2 0.468471 0.514425 0.79397
547 3 0.52682 0.515161 0.901124
548 2 0.515833 0.521121 0.900746
577 3 0.523086 0.48178 0.915872
578 2 0.518069 0.474663 0.894771
579 2 0.52716 0.492498 0.90416
549 2 0.532445 0.51709 0.926994
516 2 0.528503 0.488253 0.799837
281 1 0.566262 0.506319 0.921541
282 1 0.562752 0.523709 0.928514
283 1 0.560415 0.530197 0.965658
285 1 0.566402 0.512337 0.852839
286 1 0.560829 0.52934 0.859981
287 1 0.557453 0.534433 0.898264
384 1 0.557588 0.465429 0.972725
396 1 0.560091 0.470868 0.905347
397 1 0.561965 0.476678 0.943446
398 1 0.565119 0.493837 0.950887
406 1 0.562696 0.476638 0.837222
407 1 0.564281 0.482592 0.875606
408 1 0.566832 0.500236 0.883117
415 1 0.566626 0.48832 0.807123
416 1 0.567383 0.506216 0.814261
324 1 0.445597 0.538892 0.883001
314 1 0.44935 0.544102 0.9506
323 1 0.458091 0.551516 0.87552
335 1 0.45352 0.548021 0.807053
449 2 0.480744 0.502348 0.942943
468 2 0.480459 0.533913 0.970536
290 1 0.525948 0.559947 0.951025
295 1 0.536433 0.55533 0.875732
296 1 0.520372 0.56278 0.883429
297 1 0.514253 0.564257 0.921798
298 1 0.49658 0.566508 0.928657
299 1 0.488993 0.56803 0.96513
300 1 0.472241 0.563272 0.971908
307 1 0.531722 0.559407 0.807218
308 1 0.515125 0.565748 0.814485
309 1 0.508887 0.56589 0.85309
310 1 0.491105 0.565386 0.86025
311 1 0.484939 0.564146 0.898371
312 1 0.468423 0.557905 0.905256
313 1 0.462703 0.555414 0.943047
321 1 0.479297 0.562786 0.829918
322 1 0.463208 0.555234 0.837277
293 1 0.554114 0.539631 0.829795
284 1 0.550447 0.544293 0.97273
288 1 0.546026 0.547825 0.905446
289 1 0.541232 0.551732 0.943241
294 1 0.541725 0.552346 0.837314
ITEM: TIMESTEP
2000
ITEM: NUMBER OF ATOMS
615
ITEM: BOX BOUNDS pp pp pp
-4.0000000000000000e+01 4.0000000000000000e+01
-4.0000000000000000e+01 4.0000000000000000e+01
-3.8550000000000001e-01 3.3614500000000000e+01
ITEM: ATOMS id type xs ys zs
84 1 0.451487 0.457662 0.169914
94 1 0.455087 0.452956 0.101281
95 1 0.459795 0.449282 0.139467
106 1 0.456709 0.447563 0.0339782
105 1 0.445003 0.460344 0.0269199
96 1 0.47448 0.439841 0.146851
97 1 0.480088 0.438091 0.185447
98 1 0.497144 0.43496 0.192899
107 1 0.463501 0.444726 0.0708434
108 1 0.479401 0.436962 0.077916
109 1 0.485371 0.43557 0.116334
110 1 0.50285 0.434017 0.123961
111 1 0.50878 0.435155 0.162278
112 1 0.52543 0.440114 0.169826
119 1 0.491498 0.434329 0.0484835
120 1 0.508862 0.433927 0.0561036
121 1 0.514838 0.435374 0.0940111
122 1 0.531211 0.441717 0.101188
123 1 0.536069 0.445247 0.139429
129 1 0.520593 0.436057 0.0265815
130 1 0.536509 0.44282 0.03396
124 1 0.549307 0.456726 0.146956
131 1 0.541678 0.447615 0.0710043
132 1 0.554094 0.460338 0.0781159
56 1 0.444076 0.533977 0.170144
66 1 0.440919 0.528946 0.101325
67 1 0.438944 0.523339 0.139629
68 1 0.435329 0.50622 0.147011
69 1 0.435234 0.500229 0.185562
70 1 0.437629 0.483014 0.19294
78 1 0.43681 0.525119 0.0339707
79 1 0.436271 0.518051 0.0709487
80 1 0.434413 0.500492 0.0779497
81 1 0.435293 0.494558 0.116403
82 1 0.439499 0.477606 0.124067
83 1 0.441887 0.472122 0.162375
91 1 0.435218 0.488078 0.0485741
92 1 0.440507 0.471541 0.0562247
93 1 0.444362 0.466702 0.0940679
504 2 0.496913 0.474391 0.0854558
439 3 0.523483 0.509291 0.223982
440 2 0.528416 0.52056 0.229199
445 3 0.490837 0.479656 0.169545
446 2 0.485834 0.49071 0.176617
447 2 0.484656 0.474789 0.146687
454 3 0.500166 0.530216 0.173009
455 2 0.50045 0.532315 0.144023
456 2 0.509653 0.522719 0.180464
478 3 0.498066 0.529326 0.0954369
479 2 0.497466 0.535187 0.0694968
480 2 0.489183 0.520548 0.0967085
502 3 0.484778 0.476851 0.0894917
503 2 0.478311 0.473111 0.0659093
556 3 0.474196 0.509598 0.175479
557 2 0.483442 0.51793 0.178191
558 2 0.470254 0.509362 0.147573
562 3 0.522322 0.491337 0.158769
563 2 0.511123 0.485791 0.159382
564 2 0.524139 0.497561 0.183915
568 3 0.526081 0.512821 0.0991518
569 2 0.52651 0.50695 0.125098
570 2 0.516768 0.521158 0.0993359
583 3 0.517973 0.475483 0.0856065
584 2 0.524494 0.482355 0.104794
585 2 0.522359 0.477437 0.0584513
589 3 0.473378 0.506477 0.0979164
590 2 0.478951 0.49532 0.0998898
591 2 0.473903 0.510519 0.0701117
542 2 0.502441 0.474211 0.206127
543 2 0.516762 0.462874 0.227568
430 3 0.46935 0.486681 0.0159485
431 2 0.469116 0.498625 0.0246094
467 2 0.51479 0.525697 0.0270856
472 3 0.53317 0.508374 0.0217614
474 2 0.532019 0.50933 0.0509618
525 2 0.515347 0.471425 0.0106986
529 3 0.473384 0.519979 0.0271838
531 2 0.483891 0.526268 0.0212758
11 1 0.563351 0.517459 0.139446
12 1 0.55668 0.533706 0.146876
21 1 0.568868 0.4993 0.027233
22 1 0.566074 0.516477 0.0339743
23 1 0.56211 0.522899 0.0706291
24 1 0.553542 0.538414 0.0777389
125 1 0.552641 0.461786 0.185471
126 1 0.560848 0.477147 0.192977
133 1 0.556442 0.465994 0.116501
134 1 0.562797 0.482346 0.124197
135 1 0.564137 0.488428 0.162453
136 1 0.565525 0.505847 0.170042
137 1 0.561533 0.470634 0.0490774
138 1 0.566164 0.487485 0.0565003
139 1 0.565282 0.493954 0.0940979
140 1 0.564531 0.511448 0.101183
77 1 0.445308 0.54015 0.0267554
54 1 0.459087 0.551905 0.123984
55 1 0.454618 0.547872 0.162462
64 1 0.454296 0.54815 0.0560079
65 1 0.450425 0.543586 0.0940161
26 1 0.536148 0.554288 0.124047
27 1 0.530968 0.557486 0.162331
28 1 0.514683 0.563898 0.169812
36 1 0.531452 0.558187 0.0562431
37 1 0.525628 0.560067 0.0941225
38 1 0.508868 0.564962 0.101235
39 1 0.502907 0.565457 0.139388
40 1 0.48543 0.564134 0.14674
41 1 0.479683 0.562589 0.185356
42 1 0.463944 0.555087 0.192935
49 1 0.521278 0.564623 0.0269183
50 1 0.504247 0.567786 0.0337372
51 1 0.49719 0.566301 0.07071
52 1 0.479851 0.562943 0.0776885
53 1 0.474216 0.560737 0.116182
63 1 0.468638 0.557842 0.0481326
13 1 0.553275 0.538606 0.185549
14 1 0.540805 0.55091 0.192842
25 1 0.549665 0.543099 0.11629
35 1 0.545335 0.54779 0.048471
73 1 0.45178 0.457488 0.277246
85 1 0.455577 0.453305 0.208358
246 1 0.459837 0.449049 0.3537
74 1 0.464815 0.446061 0.284741
75 1 0.469757 0.442669 0.323087
76 1 0.485949 0.43603 0.330691
86 1 0.46955 0.443095 0.216059
87 1 0.475052 0.440569 0.2544
88 1 0.49163 0.435744 0.261873
89 1 0.497628 0.434788 0.300084
90 1 0.515025 0.435722 0.307763
99 1 0.503201 0.435123 0.231378
100 1 0.520321 0.437946 0.238742
101 1 0.526213 0.439224 0.277064
113 1 0.530833 0.442841 0.208185
247 1 0.464388 0.445143 0.391968
248 1 0.480017 0.437241 0.399571
259 1 0.4917 0.434383 0.369242
260 1 0.509236 0.434506 0.37697
269 1 0.520774 0.437076 0.346273
270 1 0.536577 0.444454 0.35389
545 2 0.466401 0.479135 0.328045
102 1 0.541213 0.448069 0.284417
103 1 0.545561 0.451958 0.322989
114 1 0.544827 0.452999 0.215888
115 1 0.549006 0.457048 0.254264
271 1 0.541598 0.44789 0.392325
272 1 0.55353 0.460724 0.39969
44 1 0.447623 0.538412 0.239037
45 1 0.444851 0.533136 0.277415
46 1 0.438079 0.517175 0.284779
47 1 0.436601 0.511455 0.323259
48 1 0.435375 0.49408 0.330852
57 1 0.441559 0.528406 0.208582
58 1 0.436381 0.51183 0.216185
59 1 0.435765 0.505778 0.254447
60 1 0.436518 0.48853 0.261844
61 1 0.437837 0.482694 0.300147
62 1 0.444814 0.466797 0.307826
71 1 0.439555 0.477299 0.231427
72 1 0.447929 0.462083 0.238868
217 1 0.448225 0.537856 0.346345
218 1 0.439583 0.52279 0.353923
219 1 0.436616 0.517498 0.392261
220 1 0.434281 0.500087 0.399754
231 1 0.435801 0.488216 0.36939
232 1 0.441559 0.471681 0.376848
245 1 0.447849 0.461704 0.346211
605 2 0.474167 0.519688 0.293486
441 2 0.525183 0.501961 0.247468
436 3 0.503858 0.472953 0.306967
437 2 0.492149 0.475886 0.314603
438 2 0.504557 0.471732 0.277742
442 3 0.510063 0.522452 0.306075
443 2 0.501859 0.521783 0.28394
444 2 0.504273 0.526545 0.330297
451 3 0.524118 0.510999 0.379878
452 2 0.515604 0.513168 0.358956
453 2 0.535324 0.514913 0.37066
499 3 0.47361 0.489426 0.243305
500 2 0.482317 0.481266 0.234553
501 2 0.467055 0.493327 0.220005
541 3 0.507106 0.470581 0.232042
544 3 0.477503 0.482794 0.338466
546 2 0.476493 0.485326 0.36717
553 3 0.488666 0.525003 0.247358
554 2 0.483655 0.514018 0.239744
555 2 0.491554 0.531462 0.223111
593 2 0.470681 0.507155 0.38115
601 3 0.527727 0.495732 0.293607
602 2 0.521663 0.506184 0.301136
603 2 0.521411 0.485797 0.303491
604 3 0.474577 0.515026 0.320758
606 2 0.476193 0.502643 0.319476
470 2 0.489563 0.537249 0.396589
471 2 0.485605 0.526465 0.356888
592 3 0.473564 0.499636 0.403647
594 2 0.470144 0.50505 0.428906
607 3 0.520585 0.477074 0.377154
608 2 0.518599 0.472254 0.350422
609 2 0.521046 0.489541 0.375306
469 3 0.494563 0.530093 0.375538
1 1 0.5643 0.505819 0.277436
2 1 0.560565 0.522746 0.28483
3 1 0.557912 0.527949 0.32326
5 1 0.565016 0.51193 0.208643
6 1 0.55943 0.528493 0.216178
7 1 0.555816 0.533434 0.254499
104 1 0.555681 0.466164 0.330566
116 1 0.557978 0.471827 0.261743
117 1 0.560075 0.477093 0.300075
118 1 0.563696 0.494008 0.307718
127 1 0.562416 0.48289 0.231578
128 1 0.565198 0.500102 0.239034
161 1 0.564083 0.499708 0.346143
162 1 0.562043 0.516932 0.353845
163 1 0.561195 0.522818 0.39204
164 1 0.552901 0.538227 0.399493
277 1 0.55864 0.471273 0.369031
278 1 0.563581 0.487958 0.376606
34 1 0.451865 0.542494 0.307918
43 1 0.459273 0.551369 0.231545
204 1 0.455593 0.546918 0.376892
10 1 0.525397 0.559872 0.307552
15 1 0.53562 0.554126 0.231354
16 1 0.519953 0.561807 0.238673
17 1 0.514247 0.563408 0.277062
18 1 0.497031 0.565394 0.284404
19 1 0.4913 0.565192 0.322974
20 1 0.474682 0.560151 0.330673
29 1 0.508636 0.564995 0.208238
30 1 0.491204 0.56518 0.21585
31 1 0.485297 0.56409 0.25427
32 1 0.46913 0.557885 0.261832
33 1 0.46449 0.554346 0.300211
176 1 0.530825 0.557482 0.376742
189 1 0.520168 0.56249 0.346114
190 1 0.5031 0.566013 0.353638
191 1 0.497213 0.566051 0.392254
192 1 0.47999 0.562839 0.399711
203 1 0.469436 0.557504 0.369238
4 1 0.548416 0.542497 0.330868
8 1 0.544628 0.546651 0.261804
9 1 0.540026 0.550543 0.300101
175 1 0.544595 0.546877 0.369305
224 1 0.450094 0.455924 0.492069
225 1 0.453462 0.450904 0.531067
234 1 0.454806 0.452225 0.422494
235 1 0.458617 0.447514 0.461148
212 1 0.44622 0.460503 0.561935
226 1 0.467922 0.440718 0.538754
227 1 0.473282 0.438321 0.577607
228 1 0.490489 0.434779 0.585107
236 1 0.473742 0.438435 0.468852
237 1 0.479221 0.436535 0.507852
238 1 0.496725 0.434688 0.515678
239 1 0.502487 0.435235 0.554497
240 1 0.519602 0.439103 0.56206
249 1 0.485479 0.435416 0.438242
250 1 0.503018 0.434692 0.44608
251 1 0.508693 0.435696 0.484954
252 1 0.525572 0.440512 0.492701
253 1 0.530763 0.443407 0.531483
261 1 0.514969 0.436057 0.415511
262 1 0.531582 0.4417 0.423078
263 1 0.536489 0.445312 0.461792
254 1 0.545358 0.453281 0.539149
255 1 0.549592 0.457696 0.577702
264 1 0.550101 0.456556 0.469307
184 1 0.446982 0.5384 0.561953
196 1 0.443382 0.533877 0.492371
197 1 0.440103 0.528602 0.531251
198 1 0.434116 0.511846 0.538863
199 1 0.434481 0.505636 0.577638
200 1 0.43597 0.488112 0.585042
206 1 0.440329 0.52888 0.422684
207 1 0.437797 0.523358 0.461557
208 1 0.434123 0.505995 0.469079
209 1 0.433706 0.499802 0.507927
210 1 0.436683 0.482256 0.515549
211 1 0.43861 0.476426 0.554415
221 1 0.434555 0.494028 0.43834
222 1 0.438898 0.476919 0.445785
223 1 0.440982 0.471108 0.484468
233 1 0.44432 0.466314 0.415156
497 2 0.485314 0.471822 0.527592
485 2 0.50281 0.523949 0.426729
539 2 0.5246 0.485694 0.425244
427 3 0.48587 0.524772 0.536866
428 2 0.476542 0.52036 0.520264
429 2 0.49657 0.524255 0.52171
463 3 0.517704 0.517872 0.514881
464 2 0.528314 0.520026 0.52958