ITEM: TIMESTEP
1000
ITEM: NUMBER OF ATOMS
618
ITEM: BOX BOUNDS pp pp pp
-4.0000000000000000e+01 4.0000000000000000e+01
-4.0000000000000000e+01 4.0000000000000000e+01
-5.0000000000000001e-04 3.3229500000000002e+01
ITEM: ATOMS id type xs ys zs
84 1 0.449387 0.455491 0.165148
94 1 0.452806 0.449568 0.0976578
95 1 0.458448 0.447123 0.135456
106 1 0.453784 0.44396 0.0321065
105 1 0.441842 0.456724 0.0260389
96 1 0.473972 0.438922 0.142059
97 1 0.47985 0.437339 0.179679
98 1 0.497153 0.433978 0.187
107 1 0.461929 0.441464 0.0677493
108 1 0.478791 0.435577 0.0739071
109 1 0.485214 0.434899 0.112033
110 1 0.50294 0.433195 0.11911
111 1 0.509199 0.433666 0.156927
112 1 0.526171 0.438017 0.164415
119 1 0.491623 0.434003 0.044972
120 1 0.509137 0.43269 0.0520731
121 1 0.515477 0.433423 0.0898252
122 1 0.531737 0.441034 0.0964144
123 1 0.536351 0.444692 0.134554
129 1 0.521489 0.436346 0.0241194
130 1 0.538499 0.4395 0.0318985
124 1 0.548919 0.456743 0.14183
131 1 0.54304 0.446625 0.0672549
132 1 0.55487 0.460079 0.0740619
56 1 0.442986 0.534205 0.164689
66 1 0.441859 0.527712 0.0967349
67 1 0.439214 0.522574 0.134898
68 1 0.435186 0.5056 0.141953
69 1 0.43362 0.499594 0.17964
70 1 0.436223 0.482079 0.187481
78 1 0.432971 0.52681 0.0330235
79 1 0.43613 0.517231 0.0667415
80 1 0.434441 0.499569 0.0736199
81 1 0.435449 0.493605 0.112231
82 1 0.438544 0.476237 0.120075
83 1 0.440499 0.470608 0.157928
91 1 0.434463 0.486408 0.0451948
92 1 0.4383 0.469345 0.0534147
93 1 0.442255 0.464133 0.0910075
484 3 0.509291 0.470655 0.0762242
439 3 0.487431 0.508434 0.140192
440 2 0.492507 0.497655 0.149299
441 2 0.496505 0.516427 0.132565
442 3 0.474219 0.517615 0.209983
443 2 0.47906 0.516379 0.182399
444 2 0.479066 0.52774 0.223226
463 3 0.500099 0.533831 0.0365812
464 2 0.490845 0.526029 0.0440942
465 2 0.49886 0.537185 0.00774593
485 2 0.499713 0.468849 0.0573813
486 2 0.505719 0.467904 0.104292
490 3 0.511525 0.52735 0.113405
491 2 0.508609 0.533403 0.0880278
529 3 0.47429 0.514665 0.0678355
530 2 0.478629 0.513588 0.0959382
532 3 0.525618 0.498084 0.096664
534 2 0.51935 0.487872 0.0880948
535 3 0.528804 0.517351 0.0299438
536 2 0.530192 0.511013 0.0556668
537 2 0.519218 0.525299 0.0325582
550 3 0.530826 0.479417 0.019165
551 2 0.523172 0.474085 0.0391958
552 2 0.541221 0.483273 0.0330654
556 3 0.500195 0.500134 0.00814301
557 2 0.496535 0.509038 0.988948
558 2 0.512194 0.501917 0.0154027
580 3 0.496382 0.472511 0.151127
581 2 0.505796 0.470213 0.170137
582 2 0.485814 0.474132 0.166716
588 2 0.534318 0.504967 0.195007
601 3 0.475712 0.480314 0.0861436
602 2 0.482527 0.478289 0.110895
603 2 0.474438 0.492618 0.0818153
607 3 0.46627 0.505502 0.984611
608 2 0.469253 0.493945 0.975666
609 2 0.470092 0.507208 0.0129675
450 2 0.515899 0.518469 0.207973
583 3 0.473542 0.482219 0.199641
586 3 0.527815 0.498262 0.175009
533 2 0.527693 0.497617 0.126318
11 1 0.562455 0.51798 0.134821
12 1 0.556326 0.53426 0.142099
21 1 0.574948 0.499899 0.0281079
22 1 0.57109 0.517334 0.0326994
23 1 0.564105 0.524501 0.0669606
125 1 0.552568 0.461749 0.17951
126 1 0.560799 0.477258 0.187122
133 1 0.556019 0.466235 0.112141
134 1 0.562159 0.482703 0.119475
135 1 0.563818 0.48873 0.157106
136 1 0.564815 0.506081 0.164554
137 1 0.56478 0.470159 0.0476078
138 1 0.567357 0.487809 0.053047
139 1 0.564655 0.494676 0.0898453
140 1 0.564511 0.512418 0.0967386
587 2 0.522659 0.488414 0.188772
77 1 0.440191 0.542965 0.0277126
54 1 0.458658 0.552315 0.119504
55 1 0.45354 0.548297 0.1574
64 1 0.453617 0.548279 0.052152
65 1 0.450891 0.542823 0.0899461
492 2 0.518713 0.517489 0.10688
531 2 0.463922 0.521646 0.0679235
26 1 0.536623 0.555531 0.119378
27 1 0.531352 0.559229 0.157234
28 1 0.514806 0.564916 0.164565
36 1 0.531776 0.560099 0.0520244
37 1 0.525462 0.560609 0.0897415
38 1 0.508406 0.565111 0.0966119
39 1 0.502671 0.565451 0.134767
40 1 0.485317 0.564329 0.141891
41 1 0.479349 0.562803 0.179596
42 1 0.463343 0.555354 0.187368
49 1 0.522835 0.571529 0.0274123
50 1 0.50529 0.574166 0.0332919
51 1 0.496764 0.56808 0.066749
52 1 0.479408 0.564133 0.0736284
53 1 0.473915 0.561214 0.112016
63 1 0.466966 0.559771 0.045254
13 1 0.552744 0.539334 0.179816
24 1 0.555011 0.540033 0.0737181
14 1 0.541052 0.552448 0.187527
25 1 0.550114 0.544165 0.112035
35 1 0.546899 0.550815 0.045698
85 1 0.453657 0.451014 0.203135
73 1 0.450594 0.456348 0.272197
246 1 0.458873 0.448202 0.348755
72 1 0.44634 0.460544 0.23357
245 1 0.447087 0.461098 0.341317
113 1 0.531473 0.441251 0.202726
74 1 0.463783 0.44502 0.279633
75 1 0.468852 0.441733 0.318056
76 1 0.485327 0.435968 0.325572
86 1 0.468451 0.44134 0.210428
87 1 0.474268 0.43938 0.2492
88 1 0.491282 0.435069 0.256379
89 1 0.497147 0.434381 0.2951
90 1 0.514481 0.435667 0.302636
99 1 0.503226 0.434076 0.22566
100 1 0.520447 0.437061 0.233394
101 1 0.525796 0.439332 0.2722
247 1 0.463942 0.445073 0.38812
248 1 0.479846 0.437577 0.395824
259 1 0.491319 0.434716 0.364448
260 1 0.508847 0.434297 0.372107
269 1 0.520347 0.437063 0.341319
270 1 0.535933 0.444929 0.348781
102 1 0.540355 0.448758 0.279731
103 1 0.544862 0.452697 0.318141
114 1 0.544978 0.452498 0.210275
115 1 0.548722 0.457217 0.249183
271 1 0.54095 0.448533 0.387875
272 1 0.553304 0.46107 0.395661
57 1 0.43956 0.528793 0.202739
45 1 0.443894 0.533535 0.271979
46 1 0.437628 0.517312 0.279501
47 1 0.436851 0.511465 0.317961
48 1 0.436063 0.494164 0.325484
58 1 0.434303 0.511813 0.210268
59 1 0.434614 0.505618 0.24917
60 1 0.435938 0.488043 0.256352
61 1 0.437704 0.482373 0.295048
62 1 0.444103 0.466253 0.302666
71 1 0.438264 0.476185 0.225962
217 1 0.447382 0.53833 0.340986
218 1 0.439297 0.52297 0.348554
219 1 0.436502 0.517507 0.38765
220 1 0.434249 0.500121 0.395502
231 1 0.436302 0.488331 0.364445
232 1 0.441335 0.471602 0.372103
427 3 0.517812 0.48044 0.300785
428 2 0.505531 0.478343 0.298352
429 2 0.521115 0.480127 0.329799
436 3 0.524267 0.487661 0.376302
437 2 0.525538 0.499317 0.386729
438 2 0.519469 0.480386 0.397876
449 2 0.511818 0.530598 0.169688
460 3 0.514334 0.473694 0.218963
461 2 0.505963 0.482174 0.228059
462 2 0.519677 0.468382 0.242976
481 3 0.476965 0.509037 0.321775
482 2 0.47935 0.497107 0.314867
483 2 0.479383 0.516269 0.297929
517 3 0.494995 0.497939 0.244931
518 2 0.502489 0.50431 0.263502
519 2 0.486522 0.505697 0.233069
526 3 0.495613 0.530245 0.272022
527 2 0.503758 0.529089 0.294679
528 2 0.501818 0.532316 0.24638
560 2 0.483781 0.51914 0.362082
568 3 0.528211 0.507315 0.255738
569 2 0.528112 0.515342 0.278805
570 2 0.526906 0.495657 0.266132
584 2 0.463982 0.490112 0.195794
585 2 0.480494 0.486 0.222937
589 3 0.516739 0.517466 0.329466
590 2 0.515829 0.505091 0.333109
591 2 0.519018 0.522857 0.356056
598 3 0.484439 0.476331 0.308627
599 2 0.486214 0.475233 0.338297
600 2 0.476234 0.467706 0.299449
448 3 0.508872 0.527986 0.198249
5 1 0.564358 0.512233 0.202716
1 1 0.564921 0.506115 0.272075
2 1 0.560839 0.523023 0.279586
3 1 0.558038 0.528087 0.318043
6 1 0.558612 0.528846 0.210434
7 1 0.555638 0.53395 0.249323
104 1 0.555514 0.46646 0.325498
116 1 0.558049 0.472034 0.256337
117 1 0.560252 0.477363 0.295006
118 1 0.564432 0.494133 0.302463
127 1 0.562681 0.4831 0.22569
128 1 0.565418 0.500385 0.233245
161 1 0.564908 0.499852 0.341134
162 1 0.562353 0.51701 0.348627
163 1 0.560875 0.522603 0.387942
164 1 0.5528 0.53814 0.395564
277 1 0.559162 0.471327 0.364347
278 1 0.564608 0.487952 0.371955
44 1 0.446488 0.538649 0.233192
34 1 0.450957 0.543228 0.302415
43 1 0.458721 0.551297 0.225833
204 1 0.454754 0.547336 0.372108
29 1 0.508617 0.566409 0.202648
10 1 0.525239 0.559925 0.302615
15 1 0.535857 0.555833 0.226091
16 1 0.520224 0.563924 0.233523
17 1 0.514181 0.564542 0.272246
18 1 0.496836 0.566294 0.279793
19 1 0.490887 0.565045 0.318223
20 1 0.474126 0.56056 0.325607
30 1 0.490972 0.566013 0.21026
31 1 0.485006 0.564854 0.249184
32 1 0.468655 0.558256 0.256306
33 1 0.463469 0.555349 0.295095
176 1 0.530636 0.556871 0.372084
189 1 0.519694 0.561471 0.341325
190 1 0.502683 0.564719 0.348876
191 1 0.496889 0.56472 0.388129
192 1 0.479594 0.562247 0.395865
203 1 0.468795 0.557719 0.364419
4 1 0.548437 0.542457 0.325424
8 1 0.544658 0.547582 0.256538
9 1 0.540038 0.550976 0.295121
175 1 0.544663 0.546715 0.364338
224 1 0.451391 0.457537 0.491789
225 1 0.455178 0.453105 0.532085
234 1 0.454659 0.452543 0.419584
235 1 0.459547 0.449149 0.459645
226 1 0.46931 0.442981 0.540106
227 1 0.474205 0.439854 0.580251
228 1 0.491164 0.435677 0.588323
236 1 0.474719 0.44045 0.467687
237 1 0.480199 0.438721 0.508006
238 1 0.497362 0.435537 0.516176
239 1 0.503039 0.435464 0.556586
240 1 0.52031 0.438114 0.564708
249 1 0.485757 0.436392 0.435708
250 1 0.503194 0.434129 0.443777
251 1 0.509049 0.435418 0.483994
252 1 0.525995 0.439776 0.492023
253 1 0.531292 0.442185 0.532462
261 1 0.514904 0.435244 0.411687
262 1 0.531375 0.441689 0.419573
263 1 0.536356 0.445187 0.459714
522 2 0.508529 0.468219 0.469218
254 1 0.545491 0.452492 0.540416
255 1 0.549584 0.45685 0.580716
264 1 0.549683 0.456673 0.467561
265 1 0.553166 0.461253 0.507943
196 1 0.443043 0.53364 0.491813
197 1 0.440531 0.528522 0.532367
198 1 0.435691 0.511724 0.540516
199 1 0.435242 0.505877 0.58083
200 1 0.436499 0.488383 0.588813
206 1 0.439847 0.528817 0.419331
207 1 0.437264 0.523407 0.459616
208 1 0.433776 0.506133 0.467681
209 1 0.434669 0.500223 0.50805
210 1 0.437732 0.483002 0.516184
211 1 0.439606 0.477246 0.556495
212 1 0.447454 0.461614 0.564378
221 1 0.434066 0.494268 0.435539
222 1 0.43883 0.47731 0.443486
223 1 0.441771 0.472171 0.483755
233 1 0.443857 0.46644 0.411756
454 3 0.470171 0.499723 0.418085
455 2 0.476888 0.509442 0.408254
456 2 0.458033 0.502705 0.417806
469 3 0.519534 0.518693 0.410381
470 2 0.507614 0.522451 0.410947
471 2 0.523114 0.515468 0.438149
475 3 0.527061 0.502332 0.479594
477 2 0.522551 0.50851 0.503395
478 3 0.504131 0.472639 0.531528
479 2 0.498238 0.471109 0.557811
480 2 0.497214 0.479871 0.513495
487 3 0.479729 0.519447 0.547073
488 2 0.492224 0.519241 0.547748
489 2 0.475666 0.530711 0.555712
520 3 0.512439 0.475289 0.446257
521 2 0.518287 0.485407 0.456939
553 3 0.487856 0.475616 0.386504
554 2 0.497026 0.473346 0.406211
555 2 0.47962 0.48354 0.398692
559 3 0.486701 0.525026 0.387683
592 3 0.514605 0.517622 0.544462
593 2 0.518538 0.527515 0.560233
594 2 0.517224 0.507146 0.559623
616 4 0.492305 0.510459 0.47907
617 5 0.490259 0.496564 0.487761
618 5 0.494402 0.524331 0.470433
145 1 0.563382 0.511255 0.532181
146 1 0.558078 0.527865 0.54031
147 1 0.555757 0.53321 0.580609
151 1 0.56303 0.517091 0.459607
152 1 0.556134 0.53329 0.467605
153 1 0.552507 0.537977 0.507937
256 1 0.559792 0.471198 0.588573
266 1 0.561213 0.476803 0.515952
267 1 0.562893 0.482385 0.556356
268 1 0.564532 0.499787 0.56458
273 1 0.557192 0.465841 0.435539
274 1 0.56445 0.481979 0.443524
275 1 0.564977 0.487947 0.483831
276 1 0.564873 0.505508 0.491811
279 1 0.566077 0.493727 0.411587
280 1 0.564562 0.511274 0.419502
476 2 0.538549 0.498141 0.485832
184 1 0.446668 0.538564 0.564608
183 1 0.459167 0.550865 0.556565
194 1 0.459134 0.550683 0.443653
195 1 0.454589 0.546849 0.483817
205 1 0.45035 0.542958 0.411632
561 2 0.482892 0.536915 0.38615
155 1 0.535848 0.553884 0.556393
156 1 0.519999 0.561033 0.564575
166 1 0.536364 0.554715 0.443451
167 1 0.531072 0.557293 0.483749
168 1 0.514502 0.562846 0.491881
169 1 0.50871 0.563513 0.532254
170 1 0.491315 0.563465 0.540377
171 1 0.485659 0.562705 0.580639
172 1 0.469224 0.556971 0.588542
177 1 0.525659 0.559707 0.411656
178 1 0.508729 0.564017 0.419601
179 1 0.502926 0.564417 0.459723
180 1 0.485531 0.562694 0.467848
181 1 0.479927 0.561063 0.508135
182 1 0.463957 0.55394 0.51607
193 1 0.474231 0.559622 0.435776
148 1 0.54536 0.547252 0.588471
154 1 0.540588 0.550657 0.516039
165 1 0.549544 0.543076 0.435457
213 1 0.450383 0.456238 0.60434
374 1 0.453417 0.451204 0.751117
375 1 0.458567 0.447338 0.789799
386 1 0.458267 0.447408 0.682483
385 1 0.446593 0.460577 0.675101
214 1 0.463347 0.444345 0.612143
215 1 0.468307 0.440887 0.651704
216 1 0.484941 0.435148 0.659119
229 1 0.496873 0.434603 0.628141
230 1 0.514313 0.436457 0.635967
241 1 0.525561 0.440412 0.604762
387 1 0.463086 0.443413 0.720961
388 1 0.478966 0.435246 0.728246
389 1 0.4852 0.433333 0.766894
390 1 0.502934 0.429951 0.773857
399 1 0.49097 0.433145 0.697669
400 1 0.508671 0.433682 0.705015
401 1 0.514969 0.433449 0.743539
402 1 0.531888 0.439671 0.75065
403 1 0.537579 0.441923 0.789938
409 1 0.520263 0.437561 0.674903
410 1 0.536113 0.445193 0.682321
543 2 0.524656 0.473642 0.680506
376 1 0.473625 0.437503 0.797267
242 1 0.540777 0.449094 0.612564
243 1 0.545565 0.452863 0.651923
411 1 0.541967 0.447419 0.720644
412 1 0.55469 0.460108 0.728093
404 1 0.550133 0.455091 0.797435
185 1 0.443696 0.533559 0.604666
186 1 0.436689 0.517541 0.612573
187 1 0.435606 0.511704 0.651967
188 1 0.435471 0.49416 0.659502
201 1 0.437673 0.482459 0.628557
202 1 0.44381 0.465991 0.636073
346 1 0.437788 0.53094 0.750542
347 1 0.434586 0.525291 0.789869
358 1 0.438316 0.52359 0.682272
359 1 0.435908 0.518208 0.720895
360 1 0.434174 0.500482 0.728296
361 1 0.433686 0.494471 0.767047
362 1 0.436902 0.476653 0.774153
371 1 0.436024 0.488163 0.698163
372 1 0.440376 0.471011 0.705406
373 1 0.441843 0.465007 0.743968
458 2 0.469939 0.498294 0.773014
348 1 0.43307 0.506996 0.797172
424 3 0.498942 0.501216 0.744873
425 2 0.492307 0.508753 0.726952
426 2 0.491166 0.494243 0.761404
457 3 0.472153 0.486165 0.77797
459 2 0.470576 0.483643 0.807199
466 3 0.524285 0.518606 0.623812
467 2 0.527571 0.518361 0.65284
468 2 0.527353 0.507746 0.610869
472 3 0.491327 0.472294 0.607716
473 2 0.501768 0.471943 0.624239
474 2 0.483197 0.463853 0.618185
498 2 0.534626 0.495907 0.781291
501 2 0.491406 0.533327 0.674445
514 3 0.471645 0.519213 0.767052
516 2 0.47616 0.525728 0.743783
538 3 0.512906 0.529192 0.771688
539 2 0.522185 0.525008 0.789154
540 2 0.505014 0.519823 0.765696
541 3 0.519657 0.476497 0.653794
542 2 0.511925 0.486233 0.65691
545 2 0.499791 0.464713 0.771508
547 3 0.526115 0.483449 0.737504
548 2 0.524941 0.473741 0.75625
549 2 0.515432 0.489936 0.736997
562 3 0.493194 0.528698 0.620709
563 2 0.485898 0.51856 0.619536
564 2 0.505194 0.525196 0.620821
565 3 0.469997 0.501104 0.687114
566 2 0.46636 0.500975 0.658324
567 2 0.460725 0.505516 0.704274
571 3 0.500177 0.500033 0.664512
572 2 0.488089 0.50148 0.671335
573 2 0.50707 0.507634 0.6817
574 3 0.472783 0.499926 0.608077
575 2 0.472575 0.505979 0.581752
576 2 0.480716 0.490293 0.606344
595 3 0.489238 0.470582 0.717196
596 2 0.480028 0.473741 0.736069
597 2 0.490934 0.479738 0.69712
604 3 0.50074 0.497931 0.827043
606 2 0.511794 0.500516 0.814444
613 3 0.5249 0.489658 0.581899
614 2 0.520357 0.482159 0.560449
615 2 0.524254 0.483859 0.608513
496 3 0.531891 0.5044 0.802366
577 3 0.526784 0.515092 0.703081
579 2 0.530566 0.503727 0.711689
499 3 0.49132 0.530614 0.70382
500 2 0.499784 0.537674 0.718018
546 2 0.502386 0.477735 0.808831
141 1 0.565022 0.505763 0.604602
142 1 0.561318 0.52289 0.612459
143 1 0.560156 0.528871 0.651672
244 1 0.55736 0.4661 0.659345
257 1 0.562898 0.476721 0.628285
258 1 0.567037 0.493935 0.635732
291 1 0.56642 0.518277 0.789543
301 1 0.568335 0.500172 0.674673
302 1 0.565648 0.51784 0.681797
303 1 0.56346 0.523849 0.720215
413 1 0.557937 0.465078 0.767266
414 1 0.565374 0.481612 0.774294
417 1 0.560913 0.47117 0.698079
418 1 0.56714 0.487888 0.705218
419 1 0.567565 0.493973 0.743847
420 1 0.567033 0.511986 0.750606
578 2 0.523937 0.521901 0.727369
292 1 0.558685 0.534633 0.79692
357 1 0.446617 0.539092 0.674893
174 1 0.450925 0.54301 0.635879
334 1 0.456136 0.555472 0.774029
344 1 0.453893 0.548969 0.705176
345 1 0.447584 0.546264 0.743362
150 1 0.52619 0.560343 0.635969
157 1 0.514575 0.562994 0.604698
158 1 0.497212 0.564779 0.61249
159 1 0.491376 0.565059 0.651885
160 1 0.474423 0.560535 0.659267
173 1 0.464148 0.55438 0.628253
306 1 0.538256 0.556958 0.773975
316 1 0.532332 0.559139 0.705091
317 1 0.526924 0.56232 0.743692
318 1 0.509536 0.567039 0.750696
319 1 0.503228 0.566887 0.789538
329 1 0.520661 0.562978 0.674921
330 1 0.503336 0.566449 0.68234
331 1 0.496987 0.568153 0.720639
332 1 0.479133 0.565277 0.728141
333 1 0.472835 0.563004 0.766838
343 1 0.468289 0.559316 0.697884
320 1 0.485192 0.56538 0.796865
304 1 0.555521 0.539885 0.727743
144 1 0.550483 0.543717 0.659082
149 1 0.541652 0.551992 0.6282
305 1 0.55169 0.544895 0.766606
315 1 0.546799 0.548751 0.697702
353 1 0.448564 0.454802 0.925593
364 1 0.449611 0.455805 0.820027
365 1 0.453237 0.450658 0.857621
352 1 0.444213 0.459188 0.886982
354 1 0.462553 0.44375 0.932643
355 1 0.467941 0.436372 0.967709
356 1 0.483576 0.428124 0.972865
366 1 0.468192 0.440987 0.864679
367 1 0.473703 0.439171 0.902956
368 1 0.490798 0.434341 0.909911
369 1 0.496979 0.431898 0.947453
370 1 0.514549 0.429563 0.952692
377 1 0.479536 0.435155 0.835328
378 1 0.496832 0.430778 0.842586
379 1 0.502975 0.432085 0.880437
380 1 0.520288 0.435424 0.887645
381 1 0.526227 0.436917 0.925863
391 1 0.509398 0.429511 0.812863
392 1 0.526743 0.435094 0.82041
393 1 0.531159 0.440182 0.857871
382 1 0.541213 0.446554 0.932745
383 1 0.55053 0.448777 0.966621
394 1 0.544139 0.452176 0.864888
395 1 0.548145 0.456661 0.903237
405 1 0.552902 0.461158 0.835387
325 1 0.441991 0.534673 0.926158
326 1 0.435519 0.518175 0.932803
327 1 0.428768 0.511394 0.967083
328 1 0.427726 0.493883 0.973009
336 1 0.439402 0.537037 0.820657
337 1 0.439221 0.529676 0.857684
338 1 0.436122 0.512206 0.86457
339 1 0.43573 0.506099 0.90275
340 1 0.435494 0.488269 0.909151
341 1 0.435657 0.482472 0.947172
342 1 0.441721 0.466032 0.954327
349 1 0.433975 0.50002 0.834907
350 1 0.435945 0.482252 0.84221
351 1 0.437224 0.47571 0.879847
363 1 0.439861 0.470746 0.81241
544 3 0.506765 0.467389 0.795636
433 3 0.501395 0.468575 0.881087
421 3 0.471542 0.488843 0.858508
422 2 0.483594 0.489852 0.850901
423 2 0.470603 0.483113 0.885158
430 3 0.483853 0.471596 0.0117652
431 2 0.490333 0.482196 0.00846173
432 2 0.477533 0.471941 0.0377157
434 2 0.509306 0.466532 0.903861
435 2 0.506313 0.464099 0.855605
445 3 0.484935 0.526337 0.838546
446 2 0.477603 0.525179 0.862759
451 3 0.502008 0.499849 0.920741
452 2 0.512205 0.498827 0.937974
453 2 0.493344 0.491731 0.930148
493 3 0.513597 0.52595 0.881344
494 2 0.508497 0.516377 0.8963
497 2 0.533934 0.499518 0.829629
502 3 0.52887 0.492444 0.875296
503 2 0.516539 0.490458 0.876509
504 2 0.533146 0.495027 0.902882
505 3 0.477501 0.477509 0.933649
506 2 0.476236 0.471385 0.959705
507 2 0.485913 0.471644 0.916442
508 3 0.472514 0.516319 0.90898
509 2 0.467948 0.513859 0.93636
510 2 0.470076 0.506725 0.890603
511 3 0.511704 0.468309 0.959813
512 2 0.520926 0.471819 0.978286
513 2 0.501612 0.465282 0.976007
515 2 0.476026 0.52402 0.792751
523 3 0.531254 0.501834 0.956889
525 2 0.53295 0.512317 0.972765
605 2 0.49454 0.508577 0.832134
610 3 0.495837 0.530794 0.957357
612 2 0.505569 0.534132 0.940267
524 2 0.532343 0.491936 0.975081
281 1 0.56764 0.50647 0.92607
282 1 0.564887 0.523915 0.932464
283 1 0.56501 0.532736 0.967846
285 1 0.566261 0.51202 0.857414
286 1 0.560083 0.528466 0.8644
287 1 0.557612 0.533594 0.902616
384 1 0.559636 0.463554 0.974509
396 1 0.557904 0.471658 0.909938
397 1 0.561584 0.476844 0.947673
398 1 0.566455 0.493734 0.955428
406 1 0.561614 0.476731 0.84262
407 1 0.562832 0.483005 0.880478
408 1 0.56676 0.500241 0.887691
415 1 0.566966 0.487955 0.81284
416 1 0.568527 0.50591 0.819975
324 1 0.445446 0.539674 0.887616
314 1 0.449004 0.545651 0.954962
323 1 0.458316 0.551602 0.880029
335 1 0.450644 0.551488 0.813063
290 1 0.526975 0.560406 0.955691
295 1 0.536448 0.554829 0.880057
296 1 0.520765 0.562691 0.887554
297 1 0.515 0.564619 0.926177
298 1 0.497455 0.566304 0.932874
299 1 0.489058 0.57019 0.967799
300 1 0.471594 0.567346 0.972356
307 1 0.532487 0.559748 0.812565
308 1 0.515505 0.565345 0.820026
309 1 0.509185 0.565076 0.857527
310 1 0.491617 0.564246 0.864372
311 1 0.486041 0.562891 0.902715
312 1 0.469381 0.557101 0.909534
313 1 0.46325 0.555875 0.947418
321 1 0.479057 0.562922 0.834784
322 1 0.462369 0.556522 0.842214
447 2 0.495983 0.531079 0.846783
495 2 0.523614 0.521954 0.866132
611 2 0.486975 0.525711 0.940016
293 1 0.55432 0.539448 0.834924
284 1 0.554928 0.547044 0.973588
288 1 0.545851 0.546825 0.909454
289 1 0.541992 0.551537 0.947458
294 1 0.542249 0.55229 0.842364
ITEM: TIMESTEP
2000
ITEM: NUMBER OF ATOMS
618
ITEM: BOX BOUNDS pp pp pp
-4.0000000000000000e+01 4.0000000000000000e+01
-4.0000000000000000e+01 4.0000000000000000e+01
-5.0000000000000001e-04 3.3229500000000002e+01
ITEM: ATOMS id type xs ys zs
84 1 0.449387 0.455491 0.165148
94 1 0.452806 0.449568 0.0976578
95 1 0.458448 0.447123 0.135456
106 1 0.453784 0.44396 0.0321065
105 1 0.441842 0.456724 0.0260389
96 1 0.473972 0.438922 0.142059
97 1 0.47985 0.437339 0.179679
98 1 0.497153 0.433978 0.187
107 1 0.461929 0.441464 0.0677493
108 1 0.478791 0.435577 0.0739071
109 1 0.485214 0.434899 0.112033
110 1 0.50294 0.433195 0.11911
111 1 0.509199 0.433666 0.156927
112 1 0.526171 0.438017 0.164415
119 1 0.491623 0.434003 0.044972
120 1 0.509137 0.43269 0.0520731
121 1 0.515477 0.433423 0.0898252
122 1 0.531737 0.441034 0.0964144
123 1 0.536351 0.444692 0.134554
129 1 0.521489 0.436346 0.0241194
130 1 0.538499 0.4395 0.0318985
124 1 0.548919 0.456743 0.14183
131 1 0.54304 0.446625 0.0672549
132 1 0.55487 0.460079 0.0740619
56 1 0.442986 0.534205 0.164689
66 1 0.441859 0.527712 0.0967349
67 1 0.439214 0.522574 0.134898
68 1 0.435186 0.5056 0.141953
69 1 0.43362 0.499594 0.17964
70 1 0.436223 0.482079 0.187481
78 1 0.432971 0.52681 0.0330235
79 1 0.43613 0.517231 0.0667415
80 1 0.434441 0.499569 0.0736199
81 1 0.435449 0.493605 0.112231
82 1 0.438544 0.476237 0.120075
83 1 0.440499 0.470608 0.157928
91 1 0.434463 0.486408 0.0451948
92 1 0.4383 0.469345 0.0534147
93 1 0.442255 0.464133 0.0910075
484 3 0.5111 0.472802 0.0790987
439 3 0.487107 0.506839 0.139488
440 2 0.492063 0.496177 0.149706
441 2 0.496261 0.51494 0.133207
443 2 0.479313 0.517519 0.183327
463 3 0.497973 0.532705 0.0384814
464 2 0.488866 0.524986 0.0473971
465 2 0.49693 0.534791 0.00891658
485 2 0.500646 0.474326 0.0630128
486 2 0.508138 0.469326 0.107111
490 3 0.509517 0.528189 0.114928
491 2 0.506064 0.533569 0.0890688
529 3 0.473461 0.512731 0.0690413
530 2 0.478574 0.51161 0.0963695
532 3 0.527126 0.500694 0.101912
534 2 0.521797 0.490163 0.0919997
535 3 0.52807 0.517646 0.0309489
536 2 0.530297 0.512375 0.0577037
537 2 0.518202 0.525265 0.0331277
550 3 0.531579 0.479873 0.0185854
551 2 0.524028 0.475724 0.0403896
556 3 0.500331 0.498812 0.00920936
558 2 0.51215 0.501543 0.0164767
580 3 0.496411 0.472083 0.152225
581 2 0.505599 0.468674 0.170903
582 2 0.485894 0.473854 0.167923
588 2 0.533706 0.504238 0.201822
601 3 0.476971 0.478727 0.0846938
602 2 0.482015 0.476053 0.111465
603 2 0.474088 0.490882 0.0836032
609 2 0.469516 0.505874 0.0156153
583 3 0.473335 0.482786 0.200301
586 3 0.527174 0.498392 0.18037
533 2 0.529197 0.499785 0.131508
587 2 0.522473 0.487754 0.191398
492 2 0.517944 0.519257 0.109307
531 2 0.462727 0.519077 0.071143
449 2 0.509758 0.532156 0.168118
584 2 0.465967 0.492727 0.196038
448 3 0.509237 0.527714 0.196218
430 3 0.48435 0.469943 0.0103757
431 2 0.490431 0.480803 0.007615
432 2 0.478562 0.469558 0.0370331
552 2 0.543016 0.481793 0.0298133
11 1 0.562455 0.51798 0.134821
12 1 0.556326 0.53426 0.142099
21 1 0.574948 0.499899 0.0281079
22 1 0.57109 0.517334 0.0326994
23 1 0.564105 0.524501 0.0669606
125 1 0.552568 0.461749 0.17951
126 1 0.560799 0.477258 0.187122
133 1 0.556019 0.466235 0.112141
134 1 0.562159 0.482703 0.119475
135 1 0.563818 0.48873 0.157106
136 1 0.564815 0.506081 0.164554
137 1 0.56478 0.470159 0.0476078
138 1 0.567357 0.487809 0.053047
139 1 0.564655 0.494676 0.0898453
140 1 0.564511 0.512418 0.0967386
77 1 0.440191 0.542965 0.0277126
54 1 0.458658 0.552315 0.119504
55 1 0.45354 0.548297 0.1574
64 1 0.453617 0.548279 0.052152
65 1 0.450891 0.542823 0.0899461
26 1 0.536623 0.555531 0.119378
27 1 0.531352 0.559229 0.157234
28 1 0.514806 0.564916 0.164565
36 1 0.531776 0.560099 0.0520244
37 1 0.525462 0.560609 0.0897415
38 1 0.508406 0.565111 0.0966119
39 1 0.502671 0.565451 0.134767
40 1 0.485317 0.564329 0.141891
41 1 0.479349 0.562803 0.179596
42 1 0.463343 0.555354 0.187368
49 1 0.522835 0.571529 0.0274123
50 1 0.50529 0.574166 0.0332919
51 1 0.496764 0.56808 0.066749
52 1 0.479408 0.564133 0.0736284
53 1 0.473915 0.561214 0.112016
63 1 0.466966 0.559771 0.045254
13 1 0.552744 0.539334 0.179816
24 1 0.555011 0.540033 0.0737181
14 1 0.541052 0.552448 0.187527
25 1 0.550114 0.544165 0.112035
35 1 0.546899 0.550815 0.045698
85 1 0.453657 0.451014 0.203135
73 1 0.450594 0.456348 0.272197
246 1 0.458873 0.448202 0.348755
72 1 0.44634 0.460544 0.23357
245 1 0.447087 0.461098 0.341317
113 1 0.531473 0.441251 0.202726
74 1 0.463783 0.44502 0.279633
75 1 0.468852 0.441733 0.318056
76 1 0.485327 0.435968 0.325572
86 1 0.468451 0.44134 0.210428
87 1 0.474268 0.43938 0.2492
88 1 0.491282 0.435069 0.256379
89 1 0.497147 0.434381 0.2951
90 1 0.514481 0.435667 0.302636
99 1 0.503226 0.434076 0.22566
100 1 0.520447 0.437061 0.233394
101 1 0.525796 0.439332 0.2722
247 1 0.463942 0.445073 0.38812
248 1 0.479846 0.437577 0.395824
259 1 0.491319 0.434716 0.364448
260 1 0.508847 0.434297 0.372107
269 1 0.520347 0.437063 0.341319
270 1 0.535933 0.444929 0.348781
102 1 0.540355 0.448758 0.279731
103 1 0.544862 0.452697 0.318141
114 1 0.544978 0.452498 0.210275
115 1 0.548722 0.457217 0.249183
271 1 0.54095 0.448533 0.387875
272 1 0.553304 0.46107 0.395661
57 1 0.43956 0.528793 0.202739
45 1 0.443894 0.533535 0.271979
46 1 0.437628 0.517312 0.279501
47 1 0.436851 0.511465 0.317961
48 1 0.436063 0.494164 0.325484
58 1 0.434303 0.511813 0.210268
59 1 0.434614 0.505618 0.24917
60 1 0.435938 0.488043 0.256352
61 1 0.437704 0.482373 0.295048
62 1 0.444103 0.466253 0.302666
71 1 0.438264 0.476185 0.225962
217 1 0.447382 0.53833 0.340986
218 1 0.439297 0.52297 0.348554
219 1 0.436502 0.517507 0.38765
220 1 0.434249 0.500121 0.395502
231 1 0.436302 0.488331 0.364445
232 1 0.441335 0.471602 0.372103
442 3 0.474508 0.517638 0.211106
444 2 0.477963 0.528134 0.225176
450 2 0.515257 0.516773 0.197583
427 3 0.516656 0.478915 0.303667
428 2 0.504184 0.478262 0.302457
429 2 0.520244 0.481073 0.332022
436 3 0.524981 0.490219 0.376138
437 2 0.524927 0.501433 0.389432
438 2 0.522039 0.48143 0.396332
460 3 0.513865 0.473 0.221661
461 2 0.505985 0.481931 0.230797
462 2 0.518786 0.467276 0.245648
481 3 0.47687 0.510841 0.318428
482 2 0.478508 0.498704 0.312399
483 2 0.48196 0.517702 0.29646
517 3 0.495389 0.497368 0.246566
518 2 0.504416 0.503438 0.261392
519 2 0.487385 0.505638 0.234825
526 3 0.497197 0.529909 0.272209
527 2 0.505629 0.52848 0.294157
528 2 0.503083 0.531245 0.245855
560 2 0.484592 0.520138 0.358786
568 3 0.528075 0.505714 0.260219
569 2 0.528405 0.514109 0.282501
570 2 0.52686 0.494245 0.271822
585 2 0.480711 0.484776 0.22412
589 3 0.518141 0.519031 0.330985
590 2 0.517979 0.506817 0.337365
591 2 0.519365 0.525575 0.356456
598 3 0.482718 0.477316 0.310503
599 2 0.485924 0.474947 0.339025
600 2 0.473969 0.469172 0.301699
553 3 0.491762 0.473527 0.385916
555 2 0.483039 0.481809 0.394107
559 3 0.487785 0.525202 0.385204
561 2 0.484349 0.537219 0.385687
5 1 0.564358 0.512233 0.202716
1 1 0.564921 0.506115 0.272075
2 1 0.560839 0.523023 0.279586
3 1 0.558038 0.528087 0.318043
6 1 0.558612 0.528846 0.210434
7 1 0.555638 0.53395 0.249323
104 1 0.555514 0.46646 0.325498
116 1 0.558049 0.472034 0.256337
117 1 0.560252 0.477363 0.295006
118 1 0.564432 0.494133 0.302463
127 1 0.562681 0.4831 0.22569
128 1 0.565418 0.500385 0.233245
161 1 0.564908 0.499852 0.341134
162 1 0.562353 0.51701 0.348627
163 1 0.560875 0.522603 0.387942
164 1 0.5528 0.53814 0.395564
277 1 0.559162 0.471327 0.364347
278 1 0.564608 0.487952 0.371955
44 1 0.446488 0.538649 0.233192
34 1 0.450957 0.543228 0.302415
43 1 0.458721 0.551297 0.225833
204 1 0.454754 0.547336 0.372108
29 1 0.508617 0.566409 0.202648
10 1 0.525239 0.559925 0.302615
15 1 0.535857 0.555833 0.226091
16 1 0.520224 0.563924 0.233523
17 1 0.514181 0.564542 0.272246
18 1 0.496836 0.566294 0.279793
19 1 0.490887 0.565045 0.318223
20 1 0.474126 0.56056 0.325607
30 1 0.490972 0.566013 0.21026
31 1 0.485006 0.564854 0.249184
32 1 0.468655 0.558256 0.256306
33 1 0.463469 0.555349 0.295095
176 1 0.530636 0.556871 0.372084
189 1 0.519694 0.561471 0.341325
190 1 0.502683 0.564719 0.348876
191 1 0.496889 0.56472 0.388129
192 1 0.479594 0.562247 0.395865
203 1 0.468795 0.557719 0.364419
4 1 0.548437 0.542457 0.325424
8 1 0.544658 0.547582 0.256538
9 1 0.540038 0.550976 0.295121
175 1 0.544663 0.546715 0.364338
224 1 0.451391 0.457537 0.491789
225 1 0.455178 0.453105 0.532085
234 1 0.454659 0.452543 0.419584
235 1 0.459547 0.449149 0.459645
226 1 0.46931 0.442981 0.540106
227 1 0.474205 0.439854 0.580251
228 1 0.491164 0.435677 0.588323
236 1 0.474719 0.44045 0.467687
237 1 0.480199 0.438721 0.508006
238 1 0.497362 0.435537 0.516176
239 1 0.503039 0.435464 0.556586
240 1 0.52031 0.438114 0.564708
249 1 0.485757 0.436392 0.435708
250 1 0.503194 0.434129 0.443777
251 1 0.509049 0.435418 0.483994
252 1 0.525995 0.439776 0.492023
253 1 0.531292 0.442185 0.532462
261 1 0.514904 0.435244 0.411687
262 1 0.531375 0.441689 0.419573
263 1 0.536356 0.445187 0.459714
254 1 0.545491 0.452492 0.540416
255 1 0.549584 0.45685 0.580716
264 1 0.549683 0.456673 0.467561
265 1 0.553166 0.461253 0.507943
196 1 0.443043 0.53364 0.491813
197 1 0.440531 0.528522 0.532367
198 1 0.435691 0.511724 0.540516
199 1 0.435242 0.505877 0.58083
200 1 0.436499 0.488383 0.588813
206 1 0.439847 0.528817 0.419331
207 1 0.437264 0.523407 0.459616
208 1 0.433776 0.506133 0.467681
209 1 0.434669 0.500223 0.50805
210 1 0.437732 0.483002 0.516184
211 1 0.439606 0.477246 0.556495
212 1 0.447454 0.461614 0.564378
221 1 0.434066 0.494268 0.435539
222 1 0.43883 0.47731 0.443486