LAMMPS data file. CGCMM style. atom_style full generated by VMD/TopoTools v1.8 on Tue Jul 23 09:35:39 -0700 2024
 615 atoms
 680 bonds
 1200 angles
 2350 dihedrals
 0 impropers
 3 atom types
 2 bond types
 1 angle types
 1 dihedral types
 0 improper types
 -40.000000 40.000000  xlo xhi
 -40.000000 40.000000  ylo yhi
 -0.385500 33.614500  zlo zhi

# Pair Coeffs
#
# 1  C
# 2  H
# 3  O

# Bond Coeffs
#
# 1  C-C
# 2  H-O

# Angle Coeffs
#
# 1  C-C-C

# Dihedral Coeffs
#
# 1  C-C-C-C

 Masses

 1 12.010700 # C
 2 1.008000 # H
 3 15.999000 # O

 Atoms # full

1 1 1 0.000000 5.162000 0.465000 8.843000 # C CNT
2 2 1 0.000000 4.853000 1.821000 9.111000 # C CNT
3 3 1 0.000000 4.670000 2.249000 10.451000 # C CNT
4 4 1 0.000000 3.903000 3.410000 10.719000 # C CNT
5 5 1 0.000000 5.100000 0.925000 6.431000 # C CNT
6 6 1 0.000000 4.670000 2.249000 6.699000 # C CNT
7 7 1 0.000000 4.450000 2.658000 8.039000 # C CNT
8 8 1 0.000000 3.582000 3.746000 8.307000 # C CNT
9 9 1 0.000000 3.232000 4.052000 9.647000 # C CNT
10 10 1 0.000000 2.037000 4.766000 9.915000 # C CNT
11 11 1 0.000000 4.996000 1.379000 4.020000 # C CNT
12 12 1 0.000000 4.450000 2.658000 4.288000 # C CNT
13 13 1 0.000000 4.193000 3.047000 5.628000 # C CNT
14 14 1 0.000000 3.232000 4.052000 5.895000 # C CNT
15 15 1 0.000000 2.855000 4.326000 7.235000 # C CNT
16 16 1 0.000000 1.602000 4.930000 7.503000 # C CNT
17 17 1 0.000000 1.153000 5.053000 8.843000 # C CNT
18 18 1 0.000000 -0.233000 5.178000 9.111000 # C CNT
19 19 1 0.000000 -0.696000 5.136000 10.451000 # C CNT
20 20 1 0.000000 -2.037000 4.766000 10.719000 # C CNT
21 21 1 0.000000 5.183000 0.000000 0.000000 # C CNT
22 22 1 0.000000 4.996000 1.379000 0.268000 # C CNT
23 23 1 0.000000 4.853000 1.821000 1.608000 # C CNT
24 24 1 0.000000 4.193000 3.047000 1.876000 # C CNT
25 25 1 0.000000 3.903000 3.410000 3.216000 # C CNT
26 26 1 0.000000 2.855000 4.326000 3.484000 # C CNT
27 27 1 0.000000 2.456000 4.564000 4.824000 # C CNT
28 28 1 0.000000 1.153000 5.053000 5.092000 # C CNT
29 29 1 0.000000 0.696000 5.136000 6.431000 # C CNT
30 30 1 0.000000 -0.696000 5.136000 6.699000 # C CNT
31 31 1 0.000000 -1.153000 5.053000 8.039000 # C CNT
32 32 1 0.000000 -2.456000 4.564000 8.307000 # C CNT
33 33 1 0.000000 -2.855000 4.326000 9.647000 # C CNT
34 34 1 0.000000 -3.903000 3.410000 9.915000 # C CNT
35 35 1 0.000000 3.582000 3.746000 0.804000 # C CNT
36 36 1 0.000000 2.456000 4.564000 1.072000 # C CNT
37 37 1 0.000000 2.037000 4.766000 2.412000 # C CNT
38 38 1 0.000000 0.696000 5.136000 2.680000 # C CNT
39 39 1 0.000000 0.233000 5.178000 4.020000 # C CNT
40 40 1 0.000000 -1.153000 5.053000 4.288000 # C CNT
41 41 1 0.000000 -1.602000 4.930000 5.628000 # C CNT
42 42 1 0.000000 -2.855000 4.326000 5.895000 # C CNT
43 43 1 0.000000 -3.232000 4.052000 7.235000 # C CNT
44 44 1 0.000000 -4.193000 3.047000 7.503000 # C CNT
45 45 1 0.000000 -4.450000 2.658000 8.843000 # C CNT
46 46 1 0.000000 -4.996000 1.379000 9.111000 # C CNT
47 47 1 0.000000 -5.100000 0.925000 10.451000 # C CNT
48 48 1 0.000000 -5.162000 -0.465000 10.719000 # C CNT
49 49 1 0.000000 1.602000 4.930000 0.000000 # C CNT
50 50 1 0.000000 0.233000 5.178000 0.268000 # C CNT
51 51 1 0.000000 -0.233000 5.178000 1.608000 # C CNT
52 52 1 0.000000 -1.602000 4.930000 1.876000 # C CNT
53 53 1 0.000000 -2.037000 4.766000 3.216000 # C CNT
54 54 1 0.000000 -3.232000 4.052000 3.484000 # C CNT
55 55 1 0.000000 -3.582000 3.746000 4.824000 # C CNT
56 56 1 0.000000 -4.450000 2.658000 5.092000 # C CNT
57 57 1 0.000000 -4.670000 2.249000 6.431000 # C CNT
58 58 1 0.000000 -5.100000 0.925000 6.699000 # C CNT
59 59 1 0.000000 -5.162000 0.465000 8.039000 # C CNT
60 60 1 0.000000 -5.100000 -0.925000 8.307000 # C CNT
61 61 1 0.000000 -4.996000 -1.379000 9.647000 # C CNT
62 62 1 0.000000 -4.450000 -2.658000 9.915000 # C CNT
63 63 1 0.000000 -2.456000 4.564000 0.804000 # C CNT
64 64 1 0.000000 -3.582000 3.746000 1.072000 # C CNT
65 65 1 0.000000 -3.903000 3.410000 2.412000 # C CNT
66 66 1 0.000000 -4.670000 2.249000 2.680000 # C CNT
67 67 1 0.000000 -4.853000 1.821000 4.020000 # C CNT
68 68 1 0.000000 -5.162000 0.465000 4.288000 # C CNT
69 69 1 0.000000 -5.183000 0.000000 5.628000 # C CNT
70 70 1 0.000000 -4.996000 -1.379000 5.895000 # C CNT
71 71 1 0.000000 -4.853000 -1.821000 7.235000 # C CNT
72 72 1 0.000000 -4.193000 -3.047000 7.503000 # C CNT
73 73 1 0.000000 -3.903000 -3.410000 8.843000 # C CNT
74 74 1 0.000000 -2.855000 -4.326000 9.111000 # C CNT
75 75 1 0.000000 -2.456000 -4.564000 10.451000 # C CNT
76 76 1 0.000000 -1.153000 -5.053000 10.719000 # C CNT
77 77 1 0.000000 -4.193000 3.047000 0.000000 # C CNT
78 78 1 0.000000 -4.853000 1.821000 0.268000 # C CNT
79 79 1 0.000000 -4.996000 1.379000 1.608000 # C CNT
80 80 1 0.000000 -5.183000 0.000000 1.876000 # C CNT
81 81 1 0.000000 -5.162000 -0.465000 3.216000 # C CNT
82 82 1 0.000000 -4.853000 -1.821000 3.484000 # C CNT
83 83 1 0.000000 -4.670000 -2.249000 4.824000 # C CNT
84 84 1 0.000000 -3.903000 -3.410000 5.092000 # C CNT
85 85 1 0.000000 -3.582000 -3.746000 6.431000 # C CNT
86 86 1 0.000000 -2.456000 -4.564000 6.699000 # C CNT
87 87 1 0.000000 -2.037000 -4.766000 8.039000 # C CNT
88 88 1 0.000000 -0.696000 -5.136000 8.307000 # C CNT
89 89 1 0.000000 -0.233000 -5.178000 9.647000 # C CNT
90 90 1 0.000000 1.153000 -5.053000 9.915000 # C CNT
91 91 1 0.000000 -5.100000 -0.925000 0.804000 # C CNT
92 92 1 0.000000 -4.670000 -2.249000 1.072000 # C CNT
93 93 1 0.000000 -4.450000 -2.658000 2.412000 # C CNT
94 94 1 0.000000 -3.582000 -3.746000 2.680000 # C CNT
95 95 1 0.000000 -3.232000 -4.052000 4.020000 # C CNT
96 96 1 0.000000 -2.037000 -4.766000 4.288000 # C CNT
97 97 1 0.000000 -1.602000 -4.930000 5.628000 # C CNT
98 98 1 0.000000 -0.233000 -5.178000 5.895000 # C CNT
99 99 1 0.000000 0.233000 -5.178000 7.235000 # C CNT
100 100 1 0.000000 1.602000 -4.930000 7.503000 # C CNT
101 101 1 0.000000 2.037000 -4.766000 8.843000 # C CNT
102 102 1 0.000000 3.232000 -4.052000 9.111000 # C CNT
103 103 1 0.000000 3.582000 -3.746000 10.451000 # C CNT
104 104 1 0.000000 4.450000 -2.658000 10.719000 # C CNT
105 105 1 0.000000 -4.193000 -3.047000 0.000000 # C CNT
106 106 1 0.000000 -3.232000 -4.052000 0.268000 # C CNT
107 107 1 0.000000 -2.855000 -4.326000 1.608000 # C CNT
108 108 1 0.000000 -1.602000 -4.930000 1.876000 # C CNT
109 109 1 0.000000 -1.153000 -5.053000 3.216000 # C CNT
110 110 1 0.000000 0.233000 -5.178000 3.484000 # C CNT
111 111 1 0.000000 0.696000 -5.136000 4.824000 # C CNT
112 112 1 0.000000 2.037000 -4.766000 5.092000 # C CNT
113 113 1 0.000000 2.456000 -4.564000 6.431000 # C CNT
114 114 1 0.000000 3.582000 -3.746000 6.699000 # C CNT
115 115 1 0.000000 3.903000 -3.410000 8.039000 # C CNT
116 116 1 0.000000 4.670000 -2.249000 8.307000 # C CNT
117 117 1 0.000000 4.853000 -1.821000 9.647000 # C CNT
118 118 1 0.000000 5.162000 -0.465000 9.915000 # C CNT
119 119 1 0.000000 -0.696000 -5.136000 0.804000 # C CNT
120 120 1 0.000000 0.696000 -5.136000 1.072000 # C CNT
121 121 1 0.000000 1.153000 -5.053000 2.412000 # C CNT
122 122 1 0.000000 2.456000 -4.564000 2.680000 # C CNT
123 123 1 0.000000 2.855000 -4.326000 4.020000 # C CNT
124 124 1 0.000000 3.903000 -3.410000 4.288000 # C CNT
125 125 1 0.000000 4.193000 -3.047000 5.628000 # C CNT
126 126 1 0.000000 4.853000 -1.821000 5.895000 # C CNT
127 127 1 0.000000 4.996000 -1.379000 7.235000 # C CNT
128 128 1 0.000000 5.183000 0.000000 7.503000 # C CNT
129 129 1 0.000000 1.602000 -4.930000 0.000000 # C CNT
130 130 1 0.000000 2.855000 -4.326000 0.268000 # C CNT
131 131 1 0.000000 3.232000 -4.052000 1.608000 # C CNT
132 132 1 0.000000 4.193000 -3.047000 1.876000 # C CNT
133 133 1 0.000000 4.450000 -2.658000 3.216000 # C CNT
134 134 1 0.000000 4.996000 -1.379000 3.484000 # C CNT
135 135 1 0.000000 5.100000 -0.925000 4.824000 # C CNT
136 136 1 0.000000 5.162000 0.465000 5.092000 # C CNT
137 137 1 0.000000 4.670000 -2.249000 0.804000 # C CNT
138 138 1 0.000000 5.100000 -0.925000 1.072000 # C CNT
139 139 1 0.000000 5.162000 -0.465000 2.412000 # C CNT
140 140 1 0.000000 5.100000 0.925000 2.680000 # C CNT
141 141 1 0.000000 5.162000 0.465000 20.098000 # C CNT
142 142 1 0.000000 4.853000 1.821000 20.365999 # C CNT
143 143 1 0.000000 4.670000 2.249000 21.705999 # C CNT
144 144 1 0.000000 3.903000 3.410000 21.974001 # C CNT
145 145 1 0.000000 5.100000 0.925000 17.686001 # C CNT
146 146 1 0.000000 4.670000 2.249000 17.954000 # C CNT
147 147 1 0.000000 4.450000 2.658000 19.294001 # C CNT
148 148 1 0.000000 3.582000 3.746000 19.562000 # C CNT
149 149 1 0.000000 3.232000 4.052000 20.902000 # C CNT
150 150 1 0.000000 2.037000 4.766000 21.170000 # C CNT
151 151 1 0.000000 4.996000 1.379000 15.275000 # C CNT
152 152 1 0.000000 4.450000 2.658000 15.543000 # C CNT
153 153 1 0.000000 4.193000 3.047000 16.882999 # C CNT
154 154 1 0.000000 3.232000 4.052000 17.150999 # C CNT
155 155 1 0.000000 2.855000 4.326000 18.490000 # C CNT
156 156 1 0.000000 1.602000 4.930000 18.757999 # C CNT
157 157 1 0.000000 1.153000 5.053000 20.098000 # C CNT
158 158 1 0.000000 -0.233000 5.178000 20.365999 # C CNT
159 159 1 0.000000 -0.696000 5.136000 21.705999 # C CNT
160 160 1 0.000000 -2.037000 4.766000 21.974001 # C CNT
161 161 1 0.000000 5.183000 0.000000 11.255000 # C CNT
162 162 1 0.000000 4.996000 1.379000 11.523000 # C CNT
163 163 1 0.000000 4.853000 1.821000 12.863000 # C CNT
164 164 1 0.000000 4.193000 3.047000 13.131000 # C CNT
165 165 1 0.000000 3.903000 3.410000 14.471000 # C CNT
166 166 1 0.000000 2.855000 4.326000 14.739000 # C CNT
167 167 1 0.000000 2.456000 4.564000 16.079000 # C CNT
168 168 1 0.000000 1.153000 5.053000 16.347000 # C CNT
169 169 1 0.000000 0.696000 5.136000 17.686001 # C CNT
170 170 1 0.000000 -0.696000 5.136000 17.954000 # C CNT
171 171 1 0.000000 -1.153000 5.053000 19.294001 # C CNT
172 172 1 0.000000 -2.456000 4.564000 19.562000 # C CNT
173 173 1 0.000000 -2.855000 4.326000 20.902000 # C CNT
174 174 1 0.000000 -3.903000 3.410000 21.170000 # C CNT
175 175 1 0.000000 3.582000 3.746000 12.059000 # C CNT
176 176 1 0.000000 2.456000 4.564000 12.327000 # C CNT
177 177 1 0.000000 2.037000 4.766000 13.667000 # C CNT
178 178 1 0.000000 0.696000 5.136000 13.935000 # C CNT
179 179 1 0.000000 0.233000 5.178000 15.275000 # C CNT
180 180 1 0.000000 -1.153000 5.053000 15.543000 # C CNT
181 181 1 0.000000 -1.602000 4.930000 16.882999 # C CNT
182 182 1 0.000000 -2.855000 4.326000 17.150999 # C CNT
183 183 1 0.000000 -3.232000 4.052000 18.490000 # C CNT
184 184 1 0.000000 -4.193000 3.047000 18.757999 # C CNT
185 185 1 0.000000 -4.450000 2.658000 20.098000 # C CNT
186 186 1 0.000000 -4.996000 1.379000 20.365999 # C CNT
187 187 1 0.000000 -5.100000 0.925000 21.705999 # C CNT
188 188 1 0.000000 -5.162000 -0.465000 21.974001 # C CNT
189 189 1 0.000000 1.602000 4.930000 11.255000 # C CNT
190 190 1 0.000000 0.233000 5.178000 11.523000 # C CNT
191 191 1 0.000000 -0.233000 5.178000 12.863000 # C CNT
192 192 1 0.000000 -1.602000 4.930000 13.131000 # C CNT
193 193 1 0.000000 -2.037000 4.766000 14.471000 # C CNT
194 194 1 0.000000 -3.232000 4.052000 14.739000 # C CNT
195 195 1 0.000000 -3.582000 3.746000 16.079000 # C CNT
196 196 1 0.000000 -4.450000 2.658000 16.347000 # C CNT
197 197 1 0.000000 -4.670000 2.249000 17.686001 # C CNT
198 198 1 0.000000 -5.100000 0.925000 17.954000 # C CNT
199 199 1 0.000000 -5.162000 0.465000 19.294001 # C CNT
200 200 1 0.000000 -5.100000 -0.925000 19.562000 # C CNT
201 201 1 0.000000 -4.996000 -1.379000 20.902000 # C CNT
202 202 1 0.000000 -4.450000 -2.658000 21.170000 # C CNT
203 203 1 0.000000 -2.456000 4.564000 12.059000 # C CNT
204 204 1 0.000000 -3.582000 3.746000 12.327000 # C CNT
205 205 1 0.000000 -3.903000 3.410000 13.667000 # C CNT
206 206 1 0.000000 -4.670000 2.249000 13.935000 # C CNT
207 207 1 0.000000 -4.853000 1.821000 15.275000 # C CNT
208 208 1 0.000000 -5.162000 0.465000 15.543000 # C CNT
209 209 1 0.000000 -5.183000 0.000000 16.882999 # C CNT
210 210 1 0.000000 -4.996000 -1.379000 17.150999 # C CNT
211 211 1 0.000000 -4.853000 -1.821000 18.490000 # C CNT
212 212 1 0.000000 -4.193000 -3.047000 18.757999 # C CNT
213 213 1 0.000000 -3.903000 -3.410000 20.098000 # C CNT
214 214 1 0.000000 -2.855000 -4.326000 20.365999 # C CNT
215 215 1 0.000000 -2.456000 -4.564000 21.705999 # C CNT
216 216 1 0.000000 -1.153000 -5.053000 21.974001 # C CNT
217 217 1 0.000000 -4.193000 3.047000 11.255000 # C CNT
218 218 1 0.000000 -4.853000 1.821000 11.523000 # C CNT
219 219 1 0.000000 -4.996000 1.379000 12.863000 # C CNT
220 220 1 0.000000 -5.183000 0.000000 13.131000 # C CNT
221 221 1 0.000000 -5.162000 -0.465000 14.471000 # C CNT
222 222 1 0.000000 -4.853000 -1.821000 14.739000 # C CNT
223 223 1 0.000000 -4.670000 -2.249000 16.079000 # C CNT
224 224 1 0.000000 -3.903000 -3.410000 16.347000 # C CNT
225 225 1 0.000000 -3.582000 -3.746000 17.686001 # C CNT
226 226 1 0.000000 -2.456000 -4.564000 17.954000 # C CNT
227 227 1 0.000000 -2.037000 -4.766000 19.294001 # C CNT
228 228 1 0.000000 -0.696000 -5.136000 19.562000 # C CNT
229 229 1 0.000000 -0.233000 -5.178000 20.902000 # C CNT
230 230 1 0.000000 1.153000 -5.053000 21.170000 # C CNT
231 231 1 0.000000 -5.100000 -0.925000 12.059000 # C CNT
232 232 1 0.000000 -4.670000 -2.249000 12.327000 # C CNT
233 233 1 0.000000 -4.450000 -2.658000 13.667000 # C CNT
234 234 1 0.000000 -3.582000 -3.746000 13.935000 # C CNT
235 235 1 0.000000 -3.232000 -4.052000 15.275000 # C CNT
236 236 1 0.000000 -2.037000 -4.766000 15.543000 # C CNT
237 237 1 0.000000 -1.602000 -4.930000 16.882999 # C CNT
238 238 1 0.000000 -0.233000 -5.178000 17.150999 # C CNT
239 239 1 0.000000 0.233000 -5.178000 18.490000 # C CNT
240 240 1 0.000000 1.602000 -4.930000 18.757999 # C CNT
241 241 1 0.000000 2.037000 -4.766000 20.098000 # C CNT
242 242 1 0.000000 3.232000 -4.052000 20.365999 # C CNT
243 243 1 0.000000 3.582000 -3.746000 21.705999 # C CNT
244 244 1 0.000000 4.450000 -2.658000 21.974001 # C CNT
245 245 1 0.000000 -4.193000 -3.047000 11.255000 # C CNT
246 246 1 0.000000 -3.232000 -4.052000 11.523000 # C CNT
247 247 1 0.000000 -2.855000 -4.326000 12.863000 # C CNT
248 248 1 0.000000 -1.602000 -4.930000 13.131000 # C CNT
249 249 1 0.000000 -1.153000 -5.053000 14.471000 # C CNT
250 250 1 0.000000 0.233000 -5.178000 14.739000 # C CNT
251 251 1 0.000000 0.696000 -5.136000 16.079000 # C CNT
252 252 1 0.000000 2.037000 -4.766000 16.347000 # C CNT
253 253 1 0.000000 2.456000 -4.564000 17.686001 # C CNT
254 254 1 0.000000 3.582000 -3.746000 17.954000 # C CNT
255 255 1 0.000000 3.903000 -3.410000 19.294001 # C CNT
256 256 1 0.000000 4.670000 -2.249000 19.562000 # C CNT
257 257 1 0.000000 4.853000 -1.821000 20.902000 # C CNT
258 258 1 0.000000 5.162000 -0.465000 21.170000 # C CNT
259 259 1 0.000000 -0.696000 -5.136000 12.059000 # C CNT
260 260 1 0.000000 0.696000 -5.136000 12.327000 # C CNT
261 261 1 0.000000 1.153000 -5.053000 13.667000 # C CNT
262 262 1 0.000000 2.456000 -4.564000 13.935000 # C CNT
263 263 1 0.000000 2.855000 -4.326000 15.275000 # C CNT
264 264 1 0.000000 3.903000 -3.410000 15.543000 # C CNT
265 265 1 0.000000 4.193000 -3.047000 16.882999 # C CNT
266 266 1 0.000000 4.853000 -1.821000 17.150999 # C CNT
267 267 1 0.000000 4.996000 -1.379000 18.490000 # C CNT
268 268 1 0.000000 5.183000 0.000000 18.757999 # C CNT
269 269 1 0.000000 1.602000 -4.930000 11.255000 # C CNT
270 270 1 0.000000 2.855000 -4.326000 11.523000 # C CNT
271 271 1 0.000000 3.232000 -4.052000 12.863000 # C CNT
272 272 1 0.000000 4.193000 -3.047000 13.131000 # C CNT
273 273 1 0.000000 4.450000 -2.658000 14.471000 # C CNT
274 274 1 0.000000 4.996000 -1.379000 14.739000 # C CNT
275 275 1 0.000000 5.100000 -0.925000 16.079000 # C CNT
276 276 1 0.000000 5.162000 0.465000 16.347000 # C CNT
277 277 1 0.000000 4.670000 -2.249000 12.059000 # C CNT
278 278 1 0.000000 5.100000 -0.925000 12.327000 # C CNT
279 279 1 0.000000 5.162000 -0.465000 13.667000 # C CNT
280 280 1 0.000000 5.100000 0.925000 13.935000 # C CNT
281 281 1 0.000000 5.162000 0.465000 31.353001 # C CNT
282 282 1 0.000000 4.853000 1.821000 31.621000 # C CNT
283 283 1 0.000000 4.670000 2.249000 32.960999 # C CNT
284 284 1 0.000000 3.903000 3.410000 33.229000 # C CNT
285 285 1 0.000000 5.100000 0.925000 28.941000 # C CNT
286 286 1 0.000000 4.670000 2.249000 29.209000 # C CNT
287 287 1 0.000000 4.450000 2.658000 30.549000 # C CNT
288 288 1 0.000000 3.582000 3.746000 30.816999 # C CNT
289 289 1 0.000000 3.232000 4.052000 32.157001 # C CNT
290 290 1 0.000000 2.037000 4.766000 32.424999 # C CNT
291 291 1 0.000000 4.996000 1.379000 26.530001 # C CNT
292 292 1 0.000000 4.450000 2.658000 26.798000 # C CNT
293 293 1 0.000000 4.193000 3.047000 28.138000 # C CNT
294 294 1 0.000000 3.232000 4.052000 28.406000 # C CNT
295 295 1 0.000000 2.855000 4.326000 29.745001 # C CNT
296 296 1 0.000000 1.602000 4.930000 30.013000 # C CNT
297 297 1 0.000000 1.153000 5.053000 31.353001 # C CNT
298 298 1 0.000000 -0.233000 5.178000 31.621000 # C CNT
299 299 1 0.000000 -0.696000 5.136000 32.960999 # C CNT
300 300 1 0.000000 -2.037000 4.766000 33.229000 # C CNT
301 301 1 0.000000 5.183000 0.000000 22.510000 # C CNT
302 302 1 0.000000 4.996000 1.379000 22.778000 # C CNT
303 303 1 0.000000 4.853000 1.821000 24.118000 # C CNT
304 304 1 0.000000 4.193000 3.047000 24.386000 # C CNT
305 305 1 0.000000 3.903000 3.410000 25.726000 # C CNT
306 306 1 0.000000 2.855000 4.326000 25.993999 # C CNT
307 307 1 0.000000 2.456000 4.564000 27.334000 # C CNT
308 308 1 0.000000 1.153000 5.053000 27.601999 # C CNT
309 309 1 0.000000 0.696000 5.136000 28.941000 # C CNT
310 310 1 0.000000 -0.696000 5.136000 29.209000 # C CNT
311 311 1 0.000000 -1.153000 5.053000 30.549000 # C CNT
312 312 1 0.000000 -2.456000 4.564000 30.816999 # C CNT
313 313 1 0.000000 -2.855000 4.326000 32.157001 # C CNT
314 314 1 0.000000 -3.903000 3.410000 32.424999 # C CNT
315 315 1 0.000000 3.582000 3.746000 23.313999 # C CNT
316 316 1 0.000000 2.456000 4.564000 23.582001 # C CNT
317 317 1 0.000000 2.037000 4.766000 24.922001 # C CNT
318 318 1 0.000000 0.696000 5.136000 25.190001 # C CNT
319 319 1 0.000000 0.233000 5.178000 26.530001 # C CNT
320 320 1 0.000000 -1.153000 5.053000 26.798000 # C CNT
321 321 1 0.000000 -1.602000 4.930000 28.138000 # C CNT
322 322 1 0.000000 -2.855000 4.326000 28.406000 # C CNT
323 323 1 0.000000 -3.232000 4.052000 29.745001 # C CNT
324 324 1 0.000000 -4.193000 3.047000 30.013000 # C CNT
325 325 1 0.000000 -4.450000 2.658000 31.353001 # C CNT
326 326 1 0.000000 -4.996000 1.379000 31.621000 # C CNT
327 327 1 0.000000 -5.100000 0.925000 32.960999 # C CNT
328 328 1 0.000000 -5.162000 -0.465000 33.229000 # C CNT
329 329 1 0.000000 1.602000 4.930000 22.510000 # C CNT
330 330 1 0.000000 0.233000 5.178000 22.778000 # C CNT
331 331 1 0.000000 -0.233000 5.178000 24.118000 # C CNT
332 332 1 0.000000 -1.602000 4.930000 24.386000 # C CNT
333 333 1 0.000000 -2.037000 4.766000 25.726000 # C CNT
334 334 1 0.000000 -3.232000 4.052000 25.993999 # C CNT
335 335 1 0.000000 -3.582000 3.746000 27.334000 # C CNT
336 336 1 0.000000 -4.450000 2.658000 27.601999 # C CNT
337 337 1 0.000000 -4.670000 2.249000 28.941000 # C CNT
338 338 1 0.000000 -5.100000 0.925000 29.209000 # C CNT
339 339 1 0.000000 -5.162000 0.465000 30.549000 # C CNT
340 340 1 0.000000 -5.100000 -0.925000 30.816999 # C CNT
341 341 1 0.000000 -4.996000 -1.379000 32.157001 # C CNT
342 342 1 0.000000 -4.450000 -2.658000 32.424999 # C CNT
343 343 1 0.000000 -2.456000 4.564000 23.313999 # C CNT
344 344 1 0.000000 -3.582000 3.746000 23.582001 # C CNT
345 345 1 0.000000 -3.903000 3.410000 24.922001 # C CNT
346 346 1 0.000000 -4.670000 2.249000 25.190001 # C CNT
347 347 1 0.000000 -4.853000 1.821000 26.530001 # C CNT
348 348 1 0.000000 -5.162000 0.465000 26.798000 # C CNT
349 349 1 0.000000 -5.183000 0.000000 28.138000 # C CNT
350 350 1 0.000000 -4.996000 -1.379000 28.406000 # C CNT
351 351 1 0.000000 -4.853000 -1.821000 29.745001 # C CNT
352 352 1 0.000000 -4.193000 -3.047000 30.013000 # C CNT
353 353 1 0.000000 -3.903000 -3.410000 31.353001 # C CNT
354 354 1 0.000000 -2.855000 -4.326000 31.621000 # C CNT
355 355 1 0.000000 -2.456000 -4.564000 32.960999 # C CNT
356 356 1 0.000000 -1.153000 -5.053000 33.229000 # C CNT
357 357 1 0.000000 -4.193000 3.047000 22.510000 # C CNT
358 358 1 0.000000 -4.853000 1.821000 22.778000 # C CNT
359 359 1 0.000000 -4.996000 1.379000 24.118000 # C CNT
360 360 1 0.000000 -5.183000 0.000000 24.386000 # C CNT
361 361 1 0.000000 -5.162000 -0.465000 25.726000 # C CNT
362 362 1 0.000000 -4.853000 -1.821000 25.993999 # C CNT
363 363 1 0.000000 -4.670000 -2.249000 27.334000 # C CNT
364 364 1 0.000000 -3.903000 -3.410000 27.601999 # C CNT
365 365 1 0.000000 -3.582000 -3.746000 28.941000 # C CNT
366 366 1 0.000000 -2.456000 -4.564000 29.209000 # C CNT
367 367 1 0.000000 -2.037000 -4.766000 30.549000 # C CNT
368 368 1 0.000000 -0.696000 -5.136000 30.816999 # C CNT
369 369 1 0.000000 -0.233000 -5.178000 32.157001 # C CNT
370 370 1 0.000000 1.153000 -5.053000 32.424999 # C CNT
371 371 1 0.000000 -5.100000 -0.925000 23.313999 # C CNT
372 372 1 0.000000 -4.670000 -2.249000 23.582001 # C CNT
373 373 1 0.000000 -4.450000 -2.658000 24.922001 # C CNT
374 374 1 0.000000 -3.582000 -3.746000 25.190001 # C CNT
375 375 1 0.000000 -3.232000 -4.052000 26.530001 # C CNT
376 376 1 0.000000 -2.037000 -4.766000 26.798000 # C CNT
377 377 1 0.000000 -1.602000 -4.930000 28.138000 # C CNT
378 378 1 0.000000 -0.233000 -5.178000 28.406000 # C CNT
379 379 1 0.000000 0.233000 -5.178000 29.745001 # C CNT
380 380 1 0.000000 1.602000 -4.930000 30.013000 # C CNT
381 381 1 0.000000 2.037000 -4.766000 31.353001 # C CNT
382 382 1 0.000000 3.232000 -4.052000 31.621000 # C CNT
383 383 1 0.000000 3.582000 -3.746000 32.960999 # C CNT
384 384 1 0.000000 4.450000 -2.658000 33.229000 # C CNT
385 385 1 0.000000 -4.193000 -3.047000 22.510000 # C CNT
386 386 1 0.000000 -3.232000 -4.052000 22.778000 # C CNT
387 387 1 0.000000 -2.855000 -4.326000 24.118000 # C CNT
388 388 1 0.000000 -1.602000 -4.930000 24.386000 # C CNT
389 389 1 0.000000 -1.153000 -5.053000 25.726000 # C CNT
390 390 1 0.000000 0.233000 -5.178000 25.993999 # C CNT
391 391 1 0.000000 0.696000 -5.136000 27.334000 # C CNT
392 392 1 0.000000 2.037000 -4.766000 27.601999 # C CNT
393 393 1 0.000000 2.456000 -4.564000 28.941000 # C CNT
394 394 1 0.000000 3.582000 -3.746000 29.209000 # C CNT
395 395 1 0.000000 3.903000 -3.410000 30.549000 # C CNT
396 396 1 0.000000 4.670000 -2.249000 30.816999 # C CNT
397 397 1 0.000000 4.853000 -1.821000 32.157001 # C CNT
398 398 1 0.000000 5.162000 -0.465000 32.424999 # C CNT
399 399 1 0.000000 -0.696000 -5.136000 23.313999 # C CNT
400 400 1 0.000000 0.696000 -5.136000 23.582001 # C CNT
401 401 1 0.000000 1.153000 -5.053000 24.922001 # C CNT
402 402 1 0.000000 2.456000 -4.564000 25.190001 # C CNT
403 403 1 0.000000 2.855000 -4.326000 26.530001 # C CNT
404 404 1 0.000000 3.903000 -3.410000 26.798000 # C CNT
405 405 1 0.000000 4.193000 -3.047000 28.138000 # C CNT
406 406 1 0.000000 4.853000 -1.821000 28.406000 # C CNT
407 407 1 0.000000 4.996000 -1.379000 29.745001 # C CNT
408 408 1 0.000000 5.183000 0.000000 30.013000 # C CNT
409 409 1 0.000000 1.602000 -4.930000 22.510000 # C CNT
410 410 1 0.000000 2.855000 -4.326000 22.778000 # C CNT
411 411 1 0.000000 3.232000 -4.052000 24.118000 # C CNT
412 412 1 0.000000 4.193000 -3.047000 24.386000 # C CNT
413 413 1 0.000000 4.450000 -2.658000 25.726000 # C CNT
414 414 1 0.000000 4.996000 -1.379000 25.993999 # C CNT
415 415 1 0.000000 5.100000 -0.925000 27.334000 # C CNT
416 416 1 0.000000 5.162000 0.465000 27.601999 # C CNT
417 417 1 0.000000 4.670000 -2.249000 23.313999 # C CNT
418 418 1 0.000000 5.100000 -0.925000 23.582001 # C CNT
419 419 1 0.000000 5.162000 -0.465000 24.922001 # C CNT
420 420 1 0.000000 5.100000 0.925000 25.190001 # C CNT
421 1 3 -0.847600 -0.223000 3.196000 29.077000 # O HOH
422 1 2 0.423800 0.426000 1.162000 26.385000 # H HOH
423 1 2 0.423800 0.267000 3.442000 29.913000 # H HOH
424 2 3 -0.847600 0.972000 2.493000 12.647000 # O HOH
425 2 2 0.423800 -0.059000 -0.738000 12.096000 # H HOH
426 2 2 0.423800 0.789000 3.377000 12.217000 # H HOH
427 3 3 -0.847600 -1.640000 0.592000 27.815001 # O HOH
428 3 2 0.423800 -1.096000 -0.947000 24.792000 # H HOH
429 3 2 0.423800 -1.055000 0.963000 28.535000 # H HOH
430 4 3 -0.847600 -1.884000 1.628000 25.077999 # O HOH
431 4 2 0.423800 -2.888000 -1.511000 24.108999 # H HOH
432 4 2 0.423800 -1.009000 2.050000 25.313000 # H HOH
433 5 3 -0.847600 -1.239000 -1.841000 16.715000 # O HOH
434 5 2 0.423800 -0.714000 1.438000 15.835000 # H HOH
435 5 2 0.423800 -2.044000 -2.410000 16.879000 # H HOH
436 6 3 -0.847600 2.167000 -1.531000 11.050000 # O HOH
437 6 2 0.423800 1.358000 -1.144000 7.733000 # H HOH
438 6 2 0.423800 2.639000 -2.230000 11.586000 # H HOH
439 7 3 -0.847600 -0.912000 2.182000 13.243000 # O HOH
440 7 2 0.423800 -1.854000 -1.103000 12.897000 # H HOH
441 7 2 0.423800 -1.107000 3.030000 12.751000 # H HOH
442 8 3 -0.847600 -1.076000 -0.356000 6.926000 # O HOH
443 8 2 0.423800 -0.282000 2.865000 7.819000 # H HOH
444 8 2 0.423800 -0.567000 -1.211000 6.835000 # H HOH
445 9 3 -0.847600 1.221000 1.888000 14.996000 # O HOH
446 9 2 0.423800 1.674000 -0.937000 13.094000 # H HOH
447 9 2 0.423800 1.821000 2.495000 15.516000 # H HOH
448 10 3 -0.847600 -1.014000 -0.041000 1.344000 # O HOH
449 10 2 0.423800 -3.062000 -1.043000 3.915000 # H HOH
450 10 2 0.423800 -0.906000 0.798000 0.812000 # H HOH
451 11 3 -0.847600 2.504000 1.534000 13.502000 # O HOH
452 11 2 0.423800 -0.176000 3.296000 14.735000 # H HOH
453 11 2 0.423800 2.914000 1.409000 12.599000 # H HOH
454 12 3 -0.847600 2.648000 -1.559000 5.573000 # O HOH
455 12 2 0.423800 -0.323000 -3.151000 4.909000 # H HOH
456 12 2 0.423800 3.050000 -0.678000 5.323000 # H HOH
457 13 3 -0.847600 -0.022000 -2.098000 8.822000 # O HOH
458 13 2 0.423800 -0.811000 0.765000 10.550000 # H HOH
459 13 2 0.423800 0.077000 -3.064000 9.060000 # H HOH
460 14 3 -0.847600 -2.434000 -1.689000 1.904000 # O HOH
461 14 2 0.423800 0.451000 -3.174000 0.775000 # H HOH
462 14 2 0.423800 -3.114000 -1.072000 1.509000 # H HOH
463 15 3 -0.847600 2.653000 -0.529000 22.809999 # O HOH
464 15 2 0.423800 2.455000 2.105000 20.614000 # H HOH
465 15 2 0.423800 2.055000 -1.291000 23.058001 # H HOH
466 16 3 -0.847600 -0.221000 -1.828000 19.393000 # O HOH
467 16 2 0.423800 -1.993000 1.115000 19.346001 # H HOH
468 16 2 0.423800 0.748000 -2.070000 19.410000 # H HOH
469 17 3 -0.847600 1.892000 -1.581000 3.722000 # O HOH
470 17 2 0.423800 2.914000 1.502000 4.841000 # H HOH
471 17 2 0.423800 2.352000 -2.436000 3.484000 # H HOH
472 18 3 -0.847600 -2.661000 2.031000 26.877001 # O HOH
473 18 2 0.423800 -3.136000 0.676000 23.754999 # H HOH
474 18 2 0.423800 -1.915000 2.516000 27.330999 # H HOH
475 19 3 -0.847600 2.012000 0.594000 16.851999 # O HOH
476 19 2 0.423800 1.794000 -2.835000 16.867001 # H HOH
477 19 2 0.423800 2.761000 1.255000 16.856001 # H HOH
478 20 3 -0.847600 -2.720000 0.242000 17.377001 # O HOH
479 20 2 0.423800 0.455000 1.514000 17.709000 # H HOH
480 20 2 0.423800 -3.107000 -0.671000 17.256001 # H HOH
481 21 3 -0.847600 2.776000 1.878000 22.596001 # O HOH
482 21 2 0.423800 -0.180000 3.215000 21.465000 # H HOH
483 21 2 0.423800 3.050000 1.341000 23.392000 # H HOH
484 22 3 -0.847600 -0.245000 -2.545000 25.639000 # O HOH
485 22 2 0.423800 2.005000 -0.065000 26.408001 # H HOH
486 22 2 0.423800 -0.207000 -3.399000 25.121000 # H HOH
487 23 3 -0.847600 0.247000 0.650000 19.500000 # O HOH
488 23 2 0.423800 -2.178000 -1.657000 18.726999 # H HOH
489 23 2 0.423800 0.264000 1.524000 19.985001 # H HOH
490 24 3 -0.847600 1.463000 -1.817000 24.893000 # O HOH
491 24 2 0.423800 -0.763000 -1.274000 22.332001 # H HOH
492 24 2 0.423800 1.927000 -2.618000 25.268999 # H HOH
493 25 3 -0.847600 3.004000 -0.323000 31.264999 # O HOH
494 25 2 0.423800 1.483000 2.757000 31.344999 # H HOH
495 25 2 0.423800 2.685000 -1.269000 31.236000 # H HOH
496 26 3 -0.847600 2.847000 -0.711000 29.309000 # O HOH
497 26 2 0.423800 0.085000 -0.585000 31.348000 # H HOH
498 26 2 0.423800 3.359000 -0.043000 28.768999 # H HOH
499 27 3 -0.847600 1.162000 -3.025000 21.118000 # O HOH
500 27 2 0.423800 -2.180000 -2.453000 20.562000 # H HOH
501 27 2 0.423800 1.784000 -2.891000 21.888000 # H HOH
502 28 3 -0.847600 2.531000 1.850000 25.829000 # O HOH
503 28 2 0.423800 3.352000 -1.243000 24.577999 # H HOH
504 28 2 0.423800 1.775000 2.489000 25.695999 # H HOH
505 29 3 -0.847600 0.820000 2.772000 9.484000 # O HOH
506 29 2 0.423800 -2.212000 2.810000 11.099000 # H HOH
507 29 2 0.423800 1.774000 2.689000 9.772000 # H HOH
508 30 3 -0.847600 0.076000 0.223000 8.455000 # O HOH
509 30 2 0.423800 -3.230000 -0.359000 9.187000 # H HOH
510 30 2 0.423800 0.710000 0.981000 8.601000 # H HOH
511 31 3 -0.847600 2.091000 -1.042000 20.500999 # O HOH
512 31 2 0.423800 -1.302000 -0.504000 20.466000 # H HOH
513 31 2 0.423800 2.900000 -0.456000 20.516001 # H HOH
514 32 3 -0.847600 1.658000 -2.814000 14.652000 # O HOH
515 32 2 0.423800 -1.688000 -3.096000 13.923000 # H HOH
516 32 2 0.423800 2.451000 -2.417000 14.191000 # H HOH
517 33 3 -0.847600 2.958000 -0.436000 9.129000 # O HOH
518 33 2 0.423800 1.739000 2.398000 7.616000 # H HOH
519 33 2 0.423800 2.949000 -1.412000 8.915000 # H HOH
520 34 3 -0.847600 -0.043000 -0.439000 17.660999 # O HOH
521 34 2 0.423800 -2.278000 2.171000 17.672001 # H HOH
522 34 2 0.423800 0.860000 -0.599000 18.058001 # H HOH
523 35 3 -0.847600 -0.299000 -1.854000 14.684000 # O HOH
524 35 2 0.423800 2.887000 -1.410000 15.891000 # H HOH