LAMMPS data file. CGCMM style. atom_style molecular generated by VMD/TopoTools v1.8 on Wed Jul 10 15:34:04 -0700 2024
 680 atoms
 940 bonds
 1720 angles
 0 dihedrals
 0 impropers
 4 atom types
 1 bond types
 6 angle types
 0 dihedral types
 0 improper types
 -20.000000 20.000000  xlo xhi
 -20.000000 20.000000  ylo yhi
 4.114500 29.114500  zlo zhi

# Pair Coeffs
#
# 1  C
# 2  H
# 3  M
# 4  O

# Bond Coeffs
#
# 1  

# Angle Coeffs
#
# 1  C-C-C
# 2  H-M-H
# 3  H-M-O
# 4  H-O-H
# 5  H-O-M
# 6  M-H-O

 Masses

 1 12.010700 # C
 2 1.008000 # H
 3 12.000000 # M
 4 15.999000 # O

 Atoms # molecular

1 1 1 5.162000 0.465000 8.843000 # C CNT
2 2 1 4.853000 1.821000 9.111000 # C CNT
3 3 1 4.670000 2.249000 10.451000 # C CNT
4 4 1 3.903000 3.410000 10.719000 # C CNT
5 5 1 5.100000 0.925000 6.431000 # C CNT
6 6 1 4.670000 2.249000 6.699000 # C CNT
7 7 1 4.450000 2.658000 8.039000 # C CNT
8 8 1 3.582000 3.746000 8.307000 # C CNT
9 9 1 3.232000 4.052000 9.647000 # C CNT
10 10 1 2.037000 4.766000 9.915000 # C CNT
11 11 1 4.996000 1.379000 4.020000 # C CNT
12 12 1 4.450000 2.658000 4.288000 # C CNT
13 13 1 4.193000 3.047000 5.628000 # C CNT
14 14 1 3.232000 4.052000 5.895000 # C CNT
15 15 1 2.855000 4.326000 7.235000 # C CNT
16 16 1 1.602000 4.930000 7.503000 # C CNT
17 17 1 1.153000 5.053000 8.843000 # C CNT
18 18 1 -0.233000 5.178000 9.111000 # C CNT
19 19 1 -0.696000 5.136000 10.451000 # C CNT
20 20 1 -2.037000 4.766000 10.719000 # C CNT
21 21 1 5.183000 0.000000 0.000000 # C CNT
22 22 1 4.996000 1.379000 0.268000 # C CNT
23 23 1 4.853000 1.821000 1.608000 # C CNT
24 24 1 4.193000 3.047000 1.876000 # C CNT
25 25 1 3.903000 3.410000 3.216000 # C CNT
26 26 1 2.855000 4.326000 3.484000 # C CNT
27 27 1 2.456000 4.564000 4.824000 # C CNT
28 28 1 1.153000 5.053000 5.092000 # C CNT
29 29 1 0.696000 5.136000 6.431000 # C CNT
30 30 1 -0.696000 5.136000 6.699000 # C CNT
31 31 1 -1.153000 5.053000 8.039000 # C CNT
32 32 1 -2.456000 4.564000 8.307000 # C CNT
33 33 1 -2.855000 4.326000 9.647000 # C CNT
34 34 1 -3.903000 3.410000 9.915000 # C CNT
35 35 1 3.582000 3.746000 0.804000 # C CNT
36 36 1 2.456000 4.564000 1.072000 # C CNT
37 37 1 2.037000 4.766000 2.412000 # C CNT
38 38 1 0.696000 5.136000 2.680000 # C CNT
39 39 1 0.233000 5.178000 4.020000 # C CNT
40 40 1 -1.153000 5.053000 4.288000 # C CNT
41 41 1 -1.602000 4.930000 5.628000 # C CNT
42 42 1 -2.855000 4.326000 5.895000 # C CNT
43 43 1 -3.232000 4.052000 7.235000 # C CNT
44 44 1 -4.193000 3.047000 7.503000 # C CNT
45 45 1 -4.450000 2.658000 8.843000 # C CNT
46 46 1 -4.996000 1.379000 9.111000 # C CNT
47 47 1 -5.100000 0.925000 10.451000 # C CNT
48 48 1 -5.162000 -0.465000 10.719000 # C CNT
49 49 1 1.602000 4.930000 0.000000 # C CNT
50 50 1 0.233000 5.178000 0.268000 # C CNT
51 51 1 -0.233000 5.178000 1.608000 # C CNT
52 52 1 -1.602000 4.930000 1.876000 # C CNT
53 53 1 -2.037000 4.766000 3.216000 # C CNT
54 54 1 -3.232000 4.052000 3.484000 # C CNT
55 55 1 -3.582000 3.746000 4.824000 # C CNT
56 56 1 -4.450000 2.658000 5.092000 # C CNT
57 57 1 -4.670000 2.249000 6.431000 # C CNT
58 58 1 -5.100000 0.925000 6.699000 # C CNT
59 59 1 -5.162000 0.465000 8.039000 # C CNT
60 60 1 -5.100000 -0.925000 8.307000 # C CNT
61 61 1 -4.996000 -1.379000 9.647000 # C CNT
62 62 1 -4.450000 -2.658000 9.915000 # C CNT
63 63 1 -2.456000 4.564000 0.804000 # C CNT
64 64 1 -3.582000 3.746000 1.072000 # C CNT
65 65 1 -3.903000 3.410000 2.412000 # C CNT
66 66 1 -4.670000 2.249000 2.680000 # C CNT
67 67 1 -4.853000 1.821000 4.020000 # C CNT
68 68 1 -5.162000 0.465000 4.288000 # C CNT
69 69 1 -5.183000 0.000000 5.628000 # C CNT
70 70 1 -4.996000 -1.379000 5.895000 # C CNT
71 71 1 -4.853000 -1.821000 7.235000 # C CNT
72 72 1 -4.193000 -3.047000 7.503000 # C CNT
73 73 1 -3.903000 -3.410000 8.843000 # C CNT
74 74 1 -2.855000 -4.326000 9.111000 # C CNT
75 75 1 -2.456000 -4.564000 10.451000 # C CNT
76 76 1 -1.153000 -5.053000 10.719000 # C CNT
77 77 1 -4.193000 3.047000 0.000000 # C CNT
78 78 1 -4.853000 1.821000 0.268000 # C CNT
79 79 1 -4.996000 1.379000 1.608000 # C CNT
80 80 1 -5.183000 0.000000 1.876000 # C CNT
81 81 1 -5.162000 -0.465000 3.216000 # C CNT
82 82 1 -4.853000 -1.821000 3.484000 # C CNT
83 83 1 -4.670000 -2.249000 4.824000 # C CNT
84 84 1 -3.903000 -3.410000 5.092000 # C CNT
85 85 1 -3.582000 -3.746000 6.431000 # C CNT
86 86 1 -2.456000 -4.564000 6.699000 # C CNT
87 87 1 -2.037000 -4.766000 8.039000 # C CNT
88 88 1 -0.696000 -5.136000 8.307000 # C CNT
89 89 1 -0.233000 -5.178000 9.647000 # C CNT
90 90 1 1.153000 -5.053000 9.915000 # C CNT
91 91 1 -5.100000 -0.925000 0.804000 # C CNT
92 92 1 -4.670000 -2.249000 1.072000 # C CNT
93 93 1 -4.450000 -2.658000 2.412000 # C CNT
94 94 1 -3.582000 -3.746000 2.680000 # C CNT
95 95 1 -3.232000 -4.052000 4.020000 # C CNT
96 96 1 -2.037000 -4.766000 4.288000 # C CNT
97 97 1 -1.602000 -4.930000 5.628000 # C CNT
98 98 1 -0.233000 -5.178000 5.895000 # C CNT
99 99 1 0.233000 -5.178000 7.235000 # C CNT
100 100 1 1.602000 -4.930000 7.503000 # C CNT
101 101 1 2.037000 -4.766000 8.843000 # C CNT
102 102 1 3.232000 -4.052000 9.111000 # C CNT
103 103 1 3.582000 -3.746000 10.451000 # C CNT
104 104 1 4.450000 -2.658000 10.719000 # C CNT
105 105 1 -4.193000 -3.047000 0.000000 # C CNT
106 106 1 -3.232000 -4.052000 0.268000 # C CNT
107 107 1 -2.855000 -4.326000 1.608000 # C CNT
108 108 1 -1.602000 -4.930000 1.876000 # C CNT
109 109 1 -1.153000 -5.053000 3.216000 # C CNT
110 110 1 0.233000 -5.178000 3.484000 # C CNT
111 111 1 0.696000 -5.136000 4.824000 # C CNT
112 112 1 2.037000 -4.766000 5.092000 # C CNT
113 113 1 2.456000 -4.564000 6.431000 # C CNT
114 114 1 3.582000 -3.746000 6.699000 # C CNT
115 115 1 3.903000 -3.410000 8.039000 # C CNT
116 116 1 4.670000 -2.249000 8.307000 # C CNT
117 117 1 4.853000 -1.821000 9.647000 # C CNT
118 118 1 5.162000 -0.465000 9.915000 # C CNT
119 119 1 -0.696000 -5.136000 0.804000 # C CNT
120 120 1 0.696000 -5.136000 1.072000 # C CNT
121 121 1 1.153000 -5.053000 2.412000 # C CNT
122 122 1 2.456000 -4.564000 2.680000 # C CNT
123 123 1 2.855000 -4.326000 4.020000 # C CNT
124 124 1 3.903000 -3.410000 4.288000 # C CNT
125 125 1 4.193000 -3.047000 5.628000 # C CNT
126 126 1 4.853000 -1.821000 5.895000 # C CNT
127 127 1 4.996000 -1.379000 7.235000 # C CNT
128 128 1 5.183000 0.000000 7.503000 # C CNT
129 129 1 1.602000 -4.930000 0.000000 # C CNT
130 130 1 2.855000 -4.326000 0.268000 # C CNT
131 131 1 3.232000 -4.052000 1.608000 # C CNT
132 132 1 4.193000 -3.047000 1.876000 # C CNT
133 133 1 4.450000 -2.658000 3.216000 # C CNT
134 134 1 4.996000 -1.379000 3.484000 # C CNT
135 135 1 5.100000 -0.925000 4.824000 # C CNT
136 136 1 5.162000 0.465000 5.092000 # C CNT
137 137 1 4.670000 -2.249000 0.804000 # C CNT
138 138 1 5.100000 -0.925000 1.072000 # C CNT
139 139 1 5.162000 -0.465000 2.412000 # C CNT
140 140 1 5.100000 0.925000 2.680000 # C CNT
141 141 1 5.162000 0.465000 20.098000 # C CNT
142 142 1 4.853000 1.821000 20.365999 # C CNT
143 143 1 4.670000 2.249000 21.705999 # C CNT
144 144 1 3.903000 3.410000 21.974001 # C CNT
145 145 1 5.100000 0.925000 17.686001 # C CNT
146 146 1 4.670000 2.249000 17.954000 # C CNT
147 147 1 4.450000 2.658000 19.294001 # C CNT
148 148 1 3.582000 3.746000 19.562000 # C CNT
149 149 1 3.232000 4.052000 20.902000 # C CNT
150 150 1 2.037000 4.766000 21.170000 # C CNT
151 151 1 4.996000 1.379000 15.275000 # C CNT
152 152 1 4.450000 2.658000 15.543000 # C CNT
153 153 1 4.193000 3.047000 16.882999 # C CNT
154 154 1 3.232000 4.052000 17.150999 # C CNT
155 155 1 2.855000 4.326000 18.490000 # C CNT
156 156 1 1.602000 4.930000 18.757999 # C CNT
157 157 1 1.153000 5.053000 20.098000 # C CNT
158 158 1 -0.233000 5.178000 20.365999 # C CNT
159 159 1 -0.696000 5.136000 21.705999 # C CNT
160 160 1 -2.037000 4.766000 21.974001 # C CNT
161 161 1 5.183000 0.000000 11.255000 # C CNT
162 162 1 4.996000 1.379000 11.523000 # C CNT
163 163 1 4.853000 1.821000 12.863000 # C CNT
164 164 1 4.193000 3.047000 13.131000 # C CNT
165 165 1 3.903000 3.410000 14.471000 # C CNT
166 166 1 2.855000 4.326000 14.739000 # C CNT
167 167 1 2.456000 4.564000 16.079000 # C CNT
168 168 1 1.153000 5.053000 16.347000 # C CNT
169 169 1 0.696000 5.136000 17.686001 # C CNT
170 170 1 -0.696000 5.136000 17.954000 # C CNT
171 171 1 -1.153000 5.053000 19.294001 # C CNT
172 172 1 -2.456000 4.564000 19.562000 # C CNT
173 173 1 -2.855000 4.326000 20.902000 # C CNT
174 174 1 -3.903000 3.410000 21.170000 # C CNT
175 175 1 3.582000 3.746000 12.059000 # C CNT
176 176 1 2.456000 4.564000 12.327000 # C CNT
177 177 1 2.037000 4.766000 13.667000 # C CNT
178 178 1 0.696000 5.136000 13.935000 # C CNT
179 179 1 0.233000 5.178000 15.275000 # C CNT
180 180 1 -1.153000 5.053000 15.543000 # C CNT
181 181 1 -1.602000 4.930000 16.882999 # C CNT
182 182 1 -2.855000 4.326000 17.150999 # C CNT
183 183 1 -3.232000 4.052000 18.490000 # C CNT
184 184 1 -4.193000 3.047000 18.757999 # C CNT
185 185 1 -4.450000 2.658000 20.098000 # C CNT
186 186 1 -4.996000 1.379000 20.365999 # C CNT
187 187 1 -5.100000 0.925000 21.705999 # C CNT
188 188 1 -5.162000 -0.465000 21.974001 # C CNT
189 189 1 1.602000 4.930000 11.255000 # C CNT
190 190 1 0.233000 5.178000 11.523000 # C CNT
191 191 1 -0.233000 5.178000 12.863000 # C CNT
192 192 1 -1.602000 4.930000 13.131000 # C CNT
193 193 1 -2.037000 4.766000 14.471000 # C CNT
194 194 1 -3.232000 4.052000 14.739000 # C CNT
195 195 1 -3.582000 3.746000 16.079000 # C CNT
196 196 1 -4.450000 2.658000 16.347000 # C CNT
197 197 1 -4.670000 2.249000 17.686001 # C CNT
198 198 1 -5.100000 0.925000 17.954000 # C CNT
199 199 1 -5.162000 0.465000 19.294001 # C CNT
200 200 1 -5.100000 -0.925000 19.562000 # C CNT
201 201 1 -4.996000 -1.379000 20.902000 # C CNT
202 202 1 -4.450000 -2.658000 21.170000 # C CNT
203 203 1 -2.456000 4.564000 12.059000 # C CNT
204 204 1 -3.582000 3.746000 12.327000 # C CNT
205 205 1 -3.903000 3.410000 13.667000 # C CNT
206 206 1 -4.670000 2.249000 13.935000 # C CNT
207 207 1 -4.853000 1.821000 15.275000 # C CNT
208 208 1 -5.162000 0.465000 15.543000 # C CNT
209 209 1 -5.183000 0.000000 16.882999 # C CNT
210 210 1 -4.996000 -1.379000 17.150999 # C CNT
211 211 1 -4.853000 -1.821000 18.490000 # C CNT
212 212 1 -4.193000 -3.047000 18.757999 # C CNT
213 213 1 -3.903000 -3.410000 20.098000 # C CNT
214 214 1 -2.855000 -4.326000 20.365999 # C CNT
215 215 1 -2.456000 -4.564000 21.705999 # C CNT
216 216 1 -1.153000 -5.053000 21.974001 # C CNT
217 217 1 -4.193000 3.047000 11.255000 # C CNT
218 218 1 -4.853000 1.821000 11.523000 # C CNT
219 219 1 -4.996000 1.379000 12.863000 # C CNT
220 220 1 -5.183000 0.000000 13.131000 # C CNT
221 221 1 -5.162000 -0.465000 14.471000 # C CNT
222 222 1 -4.853000 -1.821000 14.739000 # C CNT
223 223 1 -4.670000 -2.249000 16.079000 # C CNT
224 224 1 -3.903000 -3.410000 16.347000 # C CNT
225 225 1 -3.582000 -3.746000 17.686001 # C CNT
226 226 1 -2.456000 -4.564000 17.954000 # C CNT
227 227 1 -2.037000 -4.766000 19.294001 # C CNT
228 228 1 -0.696000 -5.136000 19.562000 # C CNT
229 229 1 -0.233000 -5.178000 20.902000 # C CNT
230 230 1 1.153000 -5.053000 21.170000 # C CNT
231 231 1 -5.100000 -0.925000 12.059000 # C CNT
232 232 1 -4.670000 -2.249000 12.327000 # C CNT
233 233 1 -4.450000 -2.658000 13.667000 # C CNT
234 234 1 -3.582000 -3.746000 13.935000 # C CNT
235 235 1 -3.232000 -4.052000 15.275000 # C CNT
236 236 1 -2.037000 -4.766000 15.543000 # C CNT
237 237 1 -1.602000 -4.930000 16.882999 # C CNT
238 238 1 -0.233000 -5.178000 17.150999 # C CNT
239 239 1 0.233000 -5.178000 18.490000 # C CNT
240 240 1 1.602000 -4.930000 18.757999 # C CNT
241 241 1 2.037000 -4.766000 20.098000 # C CNT
242 242 1 3.232000 -4.052000 20.365999 # C CNT
243 243 1 3.582000 -3.746000 21.705999 # C CNT
244 244 1 4.450000 -2.658000 21.974001 # C CNT
245 245 1 -4.193000 -3.047000 11.255000 # C CNT
246 246 1 -3.232000 -4.052000 11.523000 # C CNT
247 247 1 -2.855000 -4.326000 12.863000 # C CNT
248 248 1 -1.602000 -4.930000 13.131000 # C CNT
249 249 1 -1.153000 -5.053000 14.471000 # C CNT
250 250 1 0.233000 -5.178000 14.739000 # C CNT
251 251 1 0.696000 -5.136000 16.079000 # C CNT
252 252 1 2.037000 -4.766000 16.347000 # C CNT
253 253 1 2.456000 -4.564000 17.686001 # C CNT
254 254 1 3.582000 -3.746000 17.954000 # C CNT
255 255 1 3.903000 -3.410000 19.294001 # C CNT
256 256 1 4.670000 -2.249000 19.562000 # C CNT
257 257 1 4.853000 -1.821000 20.902000 # C CNT
258 258 1 5.162000 -0.465000 21.170000 # C CNT
259 259 1 -0.696000 -5.136000 12.059000 # C CNT
260 260 1 0.696000 -5.136000 12.327000 # C CNT
261 261 1 1.153000 -5.053000 13.667000 # C CNT
262 262 1 2.456000 -4.564000 13.935000 # C CNT
263 263 1 2.855000 -4.326000 15.275000 # C CNT
264 264 1 3.903000 -3.410000 15.543000 # C CNT
265 265 1 4.193000 -3.047000 16.882999 # C CNT
266 266 1 4.853000 -1.821000 17.150999 # C CNT
267 267 1 4.996000 -1.379000 18.490000 # C CNT
268 268 1 5.183000 0.000000 18.757999 # C CNT
269 269 1 1.602000 -4.930000 11.255000 # C CNT
270 270 1 2.855000 -4.326000 11.523000 # C CNT
271 271 1 3.232000 -4.052000 12.863000 # C CNT
272 272 1 4.193000 -3.047000 13.131000 # C CNT
273 273 1 4.450000 -2.658000 14.471000 # C CNT
274 274 1 4.996000 -1.379000 14.739000 # C CNT
275 275 1 5.100000 -0.925000 16.079000 # C CNT
276 276 1 5.162000 0.465000 16.347000 # C CNT
277 277 1 4.670000 -2.249000 12.059000 # C CNT
278 278 1 5.100000 -0.925000 12.327000 # C CNT
279 279 1 5.162000 -0.465000 13.667000 # C CNT
280 280 1 5.100000 0.925000 13.935000 # C CNT
281 281 1 5.162000 0.465000 31.353001 # C CNT
282 282 1 4.853000 1.821000 31.621000 # C CNT
283 283 1 4.670000 2.249000 32.960999 # C CNT
284 284 1 3.903000 3.410000 33.229000 # C CNT
285 285 1 5.100000 0.925000 28.941000 # C CNT
286 286 1 4.670000 2.249000 29.209000 # C CNT
287 287 1 4.450000 2.658000 30.549000 # C CNT
288 288 1 3.582000 3.746000 30.816999 # C CNT
289 289 1 3.232000 4.052000 32.157001 # C CNT
290 290 1 2.037000 4.766000 32.424999 # C CNT
291 291 1 4.996000 1.379000 26.530001 # C CNT
292 292 1 4.450000 2.658000 26.798000 # C CNT
293 293 1 4.193000 3.047000 28.138000 # C CNT
294 294 1 3.232000 4.052000 28.406000 # C CNT
295 295 1 2.855000 4.326000 29.745001 # C CNT
296 296 1 1.602000 4.930000 30.013000 # C CNT
297 297 1 1.153000 5.053000 31.353001 # C CNT
298 298 1 -0.233000 5.178000 31.621000 # C CNT
299 299 1 -0.696000 5.136000 32.960999 # C CNT
300 300 1 -2.037000 4.766000 33.229000 # C CNT
301 301 1 5.183000 0.000000 22.510000 # C CNT
302 302 1 4.996000 1.379000 22.778000 # C CNT
303 303 1 4.853000 1.821000 24.118000 # C CNT
304 304 1 4.193000 3.047000 24.386000 # C CNT
305 305 1 3.903000 3.410000 25.726000 # C CNT
306 306 1 2.855000 4.326000 25.993999 # C CNT
307 307 1 2.456000 4.564000 27.334000 # C CNT
308 308 1 1.153000 5.053000 27.601999 # C CNT
309 309 1 0.696000 5.136000 28.941000 # C CNT
310 310 1 -0.696000 5.136000 29.209000 # C CNT
311 311 1 -1.153000 5.053000 30.549000 # C CNT
312 312 1 -2.456000 4.564000 30.816999 # C CNT
313 313 1 -2.855000 4.326000 32.157001 # C CNT
314 314 1 -3.903000 3.410000 32.424999 # C CNT
315 315 1 3.582000 3.746000 23.313999 # C CNT
316 316 1 2.456000 4.564000 23.582001 # C CNT
317 317 1 2.037000 4.766000 24.922001 # C CNT
318 318 1 0.696000 5.136000 25.190001 # C CNT
319 319 1 0.233000 5.178000 26.530001 # C CNT
320 320 1 -1.153000 5.053000 26.798000 # C CNT
321 321 1 -1.602000 4.930000 28.138000 # C CNT
322 322 1 -2.855000 4.326000 28.406000 # C CNT
323 323 1 -3.232000 4.052000 29.745001 # C CNT
324 324 1 -4.193000 3.047000 30.013000 # C CNT
325 325 1 -4.450000 2.658000 31.353001 # C CNT
326 326 1 -4.996000 1.379000 31.621000 # C CNT
327 327 1 -5.100000 0.925000 32.960999 # C CNT
328 328 1 -5.162000 -0.465000 33.229000 # C CNT
329 329 1 1.602000 4.930000 22.510000 # C CNT
330 330 1 0.233000 5.178000 22.778000 # C CNT
331 331 1 -0.233000 5.178000 24.118000 # C CNT
332 332 1 -1.602000 4.930000 24.386000 # C CNT
333 333 1 -2.037000 4.766000 25.726000 # C CNT
334 334 1 -3.232000 4.052000 25.993999 # C CNT
335 335 1 -3.582000 3.746000 27.334000 # C CNT
336 336 1 -4.450000 2.658000 27.601999 # C CNT
337 337 1 -4.670000 2.249000 28.941000 # C CNT
338 338 1 -5.100000 0.925000 29.209000 # C CNT
339 339 1 -5.162000 0.465000 30.549000 # C CNT
340 340 1 -5.100000 -0.925000 30.816999 # C CNT
341 341 1 -4.996000 -1.379000 32.157001 # C CNT
342 342 1 -4.450000 -2.658000 32.424999 # C CNT
343 343 1 -2.456000 4.564000 23.313999 # C CNT
344 344 1 -3.582000 3.746000 23.582001 # C CNT
345 345 1 -3.903000 3.410000 24.922001 # C CNT
346 346 1 -4.670000 2.249000 25.190001 # C CNT
347 347 1 -4.853000 1.821000 26.530001 # C CNT
348 348 1 -5.162000 0.465000 26.798000 # C CNT
349 349 1 -5.183000 0.000000 28.138000 # C CNT
350 350 1 -4.996000 -1.379000 28.406000 # C CNT
351 351 1 -4.853000 -1.821000 29.745001 # C CNT
352 352 1 -4.193000 -3.047000 30.013000 # C CNT
353 353 1 -3.903000 -3.410000 31.353001 # C CNT
354 354 1 -2.855000 -4.326000 31.621000 # C CNT
355 355 1 -2.456000 -4.564000 32.960999 # C CNT
356 356 1 -1.153000 -5.053000 33.229000 # C CNT
357 357 1 -4.193000 3.047000 22.510000 # C CNT
358 358 1 -4.853000 1.821000 22.778000 # C CNT
359 359 1 -4.996000 1.379000 24.118000 # C CNT
360 360 1 -5.183000 0.000000 24.386000 # C CNT
361 361 1 -5.162000 -0.465000 25.726000 # C CNT
362 362 1 -4.853000 -1.821000 25.993999 # C CNT
363 363 1 -4.670000 -2.249000 27.334000 # C CNT
364 364 1 -3.903000 -3.410000 27.601999 # C CNT
365 365 1 -3.582000 -3.746000 28.941000 # C CNT
366 366 1 -2.456000 -4.564000 29.209000 # C CNT
367 367 1 -2.037000 -4.766000 30.549000 # C CNT
368 368 1 -0.696000 -5.136000 30.816999 # C CNT
369 369 1 -0.233000 -5.178000 32.157001 # C CNT
370 370 1 1.153000 -5.053000 32.424999 # C CNT
371 371 1 -5.100000 -0.925000 23.313999 # C CNT
372 372 1 -4.670000 -2.249000 23.582001 # C CNT
373 373 1 -4.450000 -2.658000 24.922001 # C CNT
374 374 1 -3.582000 -3.746000 25.190001 # C CNT
375 375 1 -3.232000 -4.052000 26.530001 # C CNT
376 376 1 -2.037000 -4.766000 26.798000 # C CNT
377 377 1 -1.602000 -4.930000 28.138000 # C CNT
378 378 1 -0.233000 -5.178000 28.406000 # C CNT
379 379 1 0.233000 -5.178000 29.745001 # C CNT
380 380 1 1.602000 -4.930000 30.013000 # C CNT
381 381 1 2.037000 -4.766000 31.353001 # C CNT
382 382 1 3.232000 -4.052000 31.621000 # C CNT
383 383 1 3.582000 -3.746000 32.960999 # C CNT
384 384 1 4.450000 -2.658000 33.229000 # C CNT
385 385 1 -4.193000 -3.047000 22.510000 # C CNT
386 386 1 -3.232000 -4.052000 22.778000 # C CNT
387 387 1 -2.855000 -4.326000 24.118000 # C CNT
388 388 1 -1.602000 -4.930000 24.386000 # C CNT
389 389 1 -1.153000 -5.053000 25.726000 # C CNT
390 390 1 0.233000 -5.178000 25.993999 # C CNT
391 391 1 0.696000 -5.136000 27.334000 # C CNT
392 392 1 2.037000 -4.766000 27.601999 # C CNT
393 393 1 2.456000 -4.564000 28.941000 # C CNT
394 394 1 3.582000 -3.746000 29.209000 # C CNT
395 395 1 3.903000 -3.410000 30.549000 # C CNT
396 396 1 4.670000 -2.249000 30.816999 # C CNT
397 397 1 4.853000 -1.821000 32.157001 # C CNT
398 398 1 5.162000 -0.465000 32.424999 # C CNT
399 399 1 -0.696000 -5.136000 23.313999 # C CNT
400 400 1 0.696000 -5.136000 23.582001 # C CNT
401 401 1 1.153000 -5.053000 24.922001 # C CNT
402 402 1 2.456000 -4.564000 25.190001 # C CNT
403 403 1 2.855000 -4.326000 26.530001 # C CNT
404 404 1 3.903000 -3.410000 26.798000 # C CNT
405 405 1 4.193000 -3.047000 28.138000 # C CNT
406 406 1 4.853000 -1.821000 28.406000 # C CNT
407 407 1 4.996000 -1.379000 29.745001 # C CNT
408 408 1 5.183000 0.000000 30.013000 # C CNT
409 409 1 1.602000 -4.930000 22.510000 # C CNT
410 410 1 2.855000 -4.326000 22.778000 # C CNT
411 411 1 3.232000 -4.052000 24.118000 # C CNT
412 412 1 4.193000 -3.047000 24.386000 # C CNT
413 413 1 4.450000 -2.658000 25.726000 # C CNT
414 414 1 4.996000 -1.379000 25.993999 # C CNT
415 415 1 5.100000 -0.925000 27.334000 # C CNT
416 416 1 5.162000 0.465000 27.601999 # C CNT
417 417 1 4.670000 -2.249000 23.313999 # C CNT
418 418 1 5.100000 -0.925000 23.582001 # C CNT
419 419 1 5.162000 -0.465000 24.922001 # C CNT
420 420 1 5.100000 0.925000 25.190001 # C CNT
421 1 2 -2.892000 -0.390000 23.246000 # H HOH
422 1 2 -1.434000 -0.595000 22.539000 # H HOH
423 1 4 -2.413000 -0.782000 22.461000 # O HOH
424 1 3 -2.348000 -0.707000 22.573000 # M HOH
425 2 2 -2.922000 1.224000 21.952000 # H HOH
426 2 2 -2.267000 0.294000 20.781000 # H HOH
427 2 4 -3.097000 0.762000 21.082001 # O HOH
428 2 3 -2.966000 0.761000 21.156000 # M HOH
429 3 2 -2.320000 -1.160000 0.006000 # H HOH
430 3 2 -3.180000 -0.833000 1.355000 # H HOH
431 3 4 -3.058000 -0.605000 0.389000 # O HOH
432 3 3 -2.978000 -0.707000 0.465000 # M HOH
433 4 2 -0.904000 -0.377000 6.857000 # H HOH
434 4 2 -2.235000 0.454000 7.309000 # H HOH
435 4 4 -1.888000 -0.440000 7.025000 # O HOH
436 4 3 -1.806000 -0.315000 7.040000 # M HOH
437 5 2 1.015000 0.213000 15.325000 # H HOH
438 5 2 -0.483000 -0.250000 15.780000 # H HOH
439 5 4 0.375000 0.157000 16.091000 # O HOH
440 5 3 0.347000 0.111000 15.951000 # M HOH
441 6 2 -1.265000 -2.231000 24.563999 # H HOH
442 6 2 -2.629000 -2.356000 23.674999 # H HOH
443 6 4 -1.636000 -2.257000 23.635000 # O HOH
444 6 3 -1.717000 -2.266000 23.761000 # M HOH
445 7 2 1.946000 -2.437000 7.276000 # H HOH
446 7 2 0.841000 -2.996000 8.341000 # H HOH
447 7 4 0.968000 -2.536000 7.462000 # O HOH
448 7 3 1.079000 -2.583000 7.552000 # M HOH
449 8 2 1.042000 3.080000 3.417000 # H HOH
450 8 2 -0.407000 3.226000 2.679000 # H HOH
451 8 4 0.053000 2.989000 3.534000 # O HOH
452 8 3 0.122000 3.032000 3.407000 # M HOH
453 9 2 2.649000 1.968000 9.339000 # H HOH
454 9 2 1.026000 2.073000 9.491000 # H HOH
455 9 4 1.838000 2.500000 9.094000 # O HOH
456 9 3 1.838000 2.375000 9.177000 # M HOH
457 10 2 -1.129000 1.124000 3.176000 # H HOH
458 10 2 -2.756000 1.090000 3.044000 # H HOH
459 10 4 -1.945000 1.669000 2.980000 # O HOH
460 10 3 -1.944000 1.523000 3.014000 # M HOH
461 11 2 0.191000 2.986000 24.108999 # H HOH
462 11 2 -1.047000 2.499000 25.055000 # H HOH
463 11 4 -0.784000 3.100000 24.302000 # O HOH
464 11 3 -0.691000 3.007000 24.375000 # M HOH
465 12 2 1.897000 -2.346000 11.507000 # H HOH
466 12 2 1.938000 -1.954000 9.922000 # H HOH
467 12 4 2.409000 -1.859000 10.799000 # O HOH
468 12 3 2.281000 -1.935000 10.777000 # M HOH
469 13 2 1.212000 0.923000 22.849001 # H HOH
470 13 2 2.470000 1.950000 23.020000 # H HOH
471 13 4 1.474000 1.870000 23.035999 # O HOH
472 13 3 1.570000 1.757000 23.010000 # M HOH
473 14 2 -0.619000 -3.336000 15.839000 # H HOH
474 14 2 0.109000 -2.027000 16.489000 # H HOH
475 14 4 0.256000 -2.946000 16.125000 # O HOH
476 14 3 0.123000 -2.877000 16.135000 # M HOH
477 15 2 -1.586000 0.678000 0.848000 # H HOH
478 15 2 -0.852000 1.873000 0.011000 # H HOH
479 15 4 -1.628000 1.243000 0.024000 # O HOH
480 15 3 -1.522000 1.252000 0.129000 # M HOH
481 16 2 -0.461000 3.152000 12.047000 # H HOH
482 16 2 -0.749000 2.939000 10.453000 # H HOH
483 16 4 -0.175000 2.662000 11.223000 # O HOH
484 16 3 -0.286000 2.761000 11.230000 # M HOH
485 17 2 1.944000 -2.738000 21.150000 # H HOH
486 17 2 2.475000 -2.367000 22.649000 # H HOH
487 17 4 1.681000 -2.647000 22.111000 # O HOH
488 17 3 1.818000 -2.623000 22.056000 # M HOH
489 18 2 1.922000 2.300000 5.566000 # H HOH
490 18 2 2.516000 2.029000 7.063000 # H HOH
491 18 4 1.796000 2.485000 6.541000 # O HOH
492 18 3 1.906000 2.402000 6.482000 # M HOH
493 19 2 -2.379000 2.463000 20.290001 # H HOH
494 19 2 -1.765000 2.487000 18.777000 # H HOH
495 19 4 -2.496000 2.127000 19.355000 # O HOH
496 19 3 -2.386000 2.218000 19.402000 # M HOH
497 20 2 1.356000 -2.916000 17.986000 # H HOH
498 20 2 0.262000 -3.277000 19.143999 # H HOH
499 20 4 0.398000 -3.144000 18.163000 # O HOH
500 20 3 0.505000 -3.131000 18.267000 # M HOH
501 21 2 -1.656000 -1.019000 12.022000 # H HOH
502 21 2 -2.958000 -0.870000 12.995000 # H HOH
503 21 4 -2.231000 -1.485000 12.694000 # O HOH
504 21 3 -2.251000 -1.345000 12.646000 # M HOH
505 22 2 -0.197000 1.747000 14.768000 # H HOH
506 22 2 0.222000 3.091000 13.941000 # H HOH
507 22 4 0.066000 2.107000 13.872000 # O HOH
508 22 3 0.052000 2.188000 13.998000 # M HOH
509 23 2 -2.800000 1.691000 12.243000 # H HOH
510 23 2 -1.272000 1.167000 12.479000 # H HOH
511 23 4 -2.043000 1.174000 11.844000 # O HOH
512 23 3 -2.041000 1.240000 11.978000 # M HOH
513 24 2 -1.186000 0.806000 9.834000 # H HOH
514 24 2 -0.301000 -0.242000 8.947000 # H HOH
515 24 4 -0.955000 -0.158000 9.699000 # O HOH
516 24 3 -0.900000 -0.044000 9.619000 # M HOH
517 25 2 -0.997000 -3.149000 2.556000 # H HOH
518 25 2 0.635000 -3.117000 2.566000 # H HOH
519 25 4 -0.191000 -2.560000 2.489000 # O HOH
520 25 3 -0.188000 -2.709000 2.508000 # M HOH
521 26 2 -0.690000 3.134000 16.122999 # H HOH
522 26 2 -2.116000 2.463000 16.552000 # H HOH
523 26 4 -1.310000 2.951000 16.886000 # O HOH
524 26 3 -1.334000 2.912000 16.743000 # M HOH
525 27 2 2.356000 1.985000 17.448999 # H HOH
526 27 2 1.194000 2.513000 16.430000 # H HOH
527 27 4 1.642000 1.703000 16.808001 # O HOH
528 27 3 1.677000 1.845000 16.841999 # M HOH
529 28 2 3.066000 0.689000 15.367000 # H HOH
530 28 2 2.290000 1.926000 14.635000 # H HOH
531 28 4 3.000000 1.231000 14.528000 # O HOH
532 28 3 2.917000 1.251000 14.651000 # M HOH
533 29 2 3.024000 -0.963000 24.764000 # H HOH
534 29 2 2.093000 0.377000 24.827999 # H HOH
535 29 4 3.030000 0.037000 24.756001 # O HOH
536 29 3 2.907000 -0.048000 24.767000 # M HOH
537 30 2 -1.436000 0.604000 24.191000 # H HOH
538 30 2 0.108000 0.659000 24.719000 # H HOH
539 30 4 -0.553000 0.135000 24.183001 # O HOH
540 30 3 -0.582000 0.264000 24.253000 # M HOH
541 31 2 -1.170000 -0.801000 2.496000 # H HOH
542 31 2 -1.863000 -1.446000 3.827000 # H HOH
543 31 4 -1.971000 -0.774000 3.095000 # O HOH
544 31 3 -1.853000 -0.865000 3.112000 # M HOH
545 32 2 -1.662000 2.860000 22.518000 # H HOH
546 32 2 -0.729000 3.127000 21.204000 # H HOH
547 32 4 -0.796000 2.635000 22.070999 # O HOH
548 32 3 -0.900000 2.728000 22.017000 # M HOH
549 33 2 0.893000 -1.729000 14.670000 # H HOH
550 33 2 2.408000 -2.331000 14.577000 # H HOH
551 33 4 1.859000 -1.540000 14.847000 # O HOH
552 33 3 1.805000 -1.668000 14.789000 # M HOH
553 34 2 0.727000 0.605000 4.929000 # H HOH
554 34 2 -0.083000 -0.667000 4.302000 # H HOH
555 34 4 0.264000 -0.256000 5.144000 # O HOH
556 34 3 0.279000 -0.197000 5.007000 # M HOH
557 35 2 0.188000 -3.121000 10.427000 # H HOH
558 35 2 -0.992000 -2.963000 11.544000 # H HOH
559 35 4 -0.215000 -2.510000 11.108000 # O HOH
560 35 3 -0.264000 -2.648000 11.076000 # M HOH
561 36 2 1.064000 -2.388000 24.598000 # H HOH
562 36 2 0.144000 -3.188000 23.511999 # H HOH
563 36 4 0.525000 -3.215000 24.434999 # O HOH
564 36 3 0.546000 -3.104000 24.336000 # M HOH
565 37 2 -3.262000 -0.847000 15.517000 # H HOH
566 37 2 -2.540000 -2.125000 14.802000 # H HOH
567 37 4 -2.621000 -1.602000 15.650000 # O HOH
568 37 3 -2.693000 -1.572000 15.523000 # M HOH
569 38 2 -0.251000 2.074000 5.877000 # H HOH
570 38 2 -1.837000 2.405000 6.079000 # H HOH
571 38 4 -1.074000 2.430000 5.434000 # O HOH
572 38 3 -1.067000 2.380000 5.575000 # M HOH
573 39 2 2.838000 1.689000 11.505000 # H HOH
574 39 2 1.645000 2.291000 12.444000 # H HOH
575 39 4 1.939000 2.128000 11.503000 # O HOH
576 39 3 2.018000 2.092000 11.626000 # M HOH
577 40 2 2.089000 -2.350000 0.764000 # H HOH
578 40 2 2.890000 -1.019000 1.265000 # H HOH
579 40 4 2.039000 -1.357000 0.864000 # O HOH
580 40 3 2.156000 -1.442000 0.903000 # M HOH
581 41 2 -2.980000 0.963000 14.374000 # H HOH
582 41 2 -2.042000 2.282000 14.155000 # H HOH
583 41 4 -2.272000 1.540000 14.783000 # O HOH
584 41 3 -2.334000 1.561000 14.648000 # M HOH
585 42 2 2.764000 1.185000 1.333000 # H HOH
586 42 2 2.118000 2.206000 0.234000 # H HOH
587 42 4 2.079000 1.898000 1.184000 # O HOH
588 42 3 2.173000 1.846000 1.080000 # M HOH
589 43 2 2.226000 -1.752000 19.389000 # H HOH
590 43 2 1.025000 -1.035000 20.231001 # H HOH
591 43 4 1.670000 -0.925000 19.475000 # O HOH
592 43 3 1.658000 -1.047000 19.563000 # M HOH
593 44 2 2.999000 0.094000 22.330999 # H HOH
594 44 2 2.935000 -0.978000 21.101000 # H HOH
595 44 4 2.395000 -0.478000 21.775999 # O HOH
596 44 3 2.543000 -0.469000 21.761000 # M HOH
597 45 2 1.795000 2.845000 19.565001 # H HOH
598 45 2 0.328000 3.353000 19.058001 # H HOH
599 45 4 1.174000 2.896000 18.783001 # O HOH
600 45 3 1.144000 2.949000 18.920000 # M HOH
601 46 2 0.395000 -2.865000 12.988000 # H HOH
602 46 2 -1.053000 -3.095000 13.708000 # H HOH
603 46 4 -0.068000 -3.251000 13.786000 # O HOH
604 46 3 -0.136000 -3.181000 13.672000 # M HOH
605 47 2 0.560000 0.306000 0.757000 # H HOH
606 47 2 0.159000 1.570000 1.710000 # H HOH
607 47 4 0.393000 0.598000 1.699000 # O HOH
608 47 3 0.384000 0.687000 1.578000 # M HOH
609 48 2 0.472000 0.512000 11.311000 # H HOH
610 48 2 1.750000 0.184000 10.349000 # H HOH
611 48 4 0.946000 -0.204000 10.799000 # O HOH
612 48 3 0.989000 -0.061000 10.807000 # M HOH
613 49 2 -2.043000 2.428000 8.260000 # H HOH
614 49 2 -0.566000 1.768000 8.041000 # H HOH
615 49 4 -1.058000 2.595000 8.308000 # O HOH
616 49 3 -1.122000 2.466000 8.267000 # M HOH
617 50 2 3.030000 1.216000 19.169001 # H HOH
618 50 2 2.818000 1.347000 20.783001 # H HOH
619 50 4 2.995000 0.712000 20.032000 # O HOH
620 50 3 2.977000 0.860000 20.017000 # M HOH
621 51 2 0.841000 1.900000 21.049000 # H HOH
622 51 2 -0.043000 0.530000 21.135000 # H HOH
623 51 4 0.322000 1.229000 20.520000 # O HOH
624 51 3 0.342000 1.225000 20.669001 # M HOH
625 52 2 1.928000 -0.296000 6.258000 # H HOH