ITEM: TIMESTEP
1000
ITEM: NUMBER OF ATOMS
99
ITEM: BOX BOUNDS pp pp pp
-5.0000000000000000e+00 5.0000000000000000e+00
-5.0000000000000000e+00 5.0000000000000000e+00
-5.0000000000000000e+00 5.0000000000000000e+00
ITEM: ATOMS id type xs ys zs
1 1 0.401131 0.781283 0.448013
2 2 0.471755 0.712664 0.465439
3 2 0.321418 0.737307 0.406638
4 1 0.542368 0.837676 0.143567
5 2 0.48249 0.758511 0.155718
6 2 0.602876 0.822031 0.0655038
7 1 0.477686 0.476969 0.234899
8 2 0.536915 0.514577 0.306156
9 2 0.533162 0.450279 0.156096
10 1 0.598838 0.567615 0.839537
11 2 0.667969 0.610755 0.781573
12 2 0.632056 0.47845 0.870295
13 1 0.952812 0.0415107 0.933178
14 2 0.88228 0.0526271 0.863165
15 2 0.940438 0.110764 0.00424675
16 1 0.276767 0.850352 0.98654
17 2 0.186481 0.826478 0.950785
18 2 0.283332 0.8219 0.0821819
19 1 0.324869 0.463285 0.993392
20 2 0.407021 0.478381 0.938409
21 2 0.34351 0.393718 0.0627663
22 1 0.617778 0.98261 0.384533
23 2 0.657302 0.934702 0.306157
24 2 0.536348 0.933748 0.415864
25 1 0.403132 0.209189 0.0673356
26 2 0.395393 0.135504 0.134497
27 2 0.317079 0.217681 1.01711
28 1 0.916096 0.411822 0.771869
29 2 0.862643 0.345204 0.823877
30 2 0.885837 0.411726 0.676557
31 1 0.0854481 0.119581 0.521868
32 2 0.137194 0.0766425 0.447849
33 2 0.110071 0.216308 0.528
34 1 0.245343 0.354891 0.595645
35 2 0.251012 0.444697 0.639266
36 2 0.257954 0.364919 0.496951
37 1 1.01407 0.273585 0.1142
38 2 0.0854948 0.314336 0.0572948
39 2 0.0541084 0.241465 0.200022
40 1 0.822134 0.168262 0.484444
41 2 0.913928 0.129345 0.476738
42 2 0.756531 0.10823 0.438701
43 1 0.111178 0.819092 0.667168
44 2 0.188187 0.758253 0.647977
45 2 0.124816 0.906088 0.61978
46 1 0.54011 0.240842 0.50419
47 2 0.540509 0.146717 0.470422
48 2 0.518131 0.303104 0.429088
49 1 0.447662 0.902892 0.779622
50 2 0.363645 0.903363 0.833853
51 2 0.498421 0.987469 0.796063
52 1 0.341511 0.0384797 0.268741
53 2 0.41492 0.971485 0.257658
54 2 0.260084 0.993035 0.304859
55 1 0.0333085 0.676758 0.870085
56 2 0.0548989 0.740433 0.796063
57 2 0.00669145 0.588468 0.831402
58 1 0.680143 0.351727 0.0255961
59 2 0.609279 0.290496 0.99054
60 2 0.761496 0.298544 0.0491193
61 1 0.200293 0.207221 0.85451
62 2 0.192471 0.2412 0.760786
63 2 0.132354 0.135437 0.869719
64 1 0.0126833 0.607919 0.363227
65 2 0.980835 0.546377 0.435326
66 2 0.964913 0.586875 0.277933
67 1 0.558575 0.554726 0.523621
68 2 0.540796 0.496106 0.602662
69 2 0.630774 0.620129 0.546197
70 1 0.229938 0.678777 0.20427
71 2 0.159511 0.61897 0.242521
72 2 0.299454 0.623362 0.158481
73 1 0.7683 0.113014 0.742586
74 2 0.675888 0.150752 0.736604
75 2 0.807924 0.107196 0.650955
76 1 0.0693633 0.882564 0.32921
77 2 0.00549361 0.833262 0.388287
78 2 0.107646 0.819586 0.261621
79 1 0.304276 0.612851 0.731949
80 2 0.244992 0.597707 0.811044
81 2 0.379352 0.673672 0.757726
82 1 0.53206 0.248705 0.814798
83 2 0.485495 0.275327 0.730401
84 2 0.46556 0.210358 0.878886
85 1 0.840073 0.591564 0.155532
86 2 0.789349 0.508746 0.131692
87 2 0.789772 0.671838 0.123503
88 1 0.81984 0.423241 0.502995
89 2 0.735337 0.457598 0.462022
90 2 0.822311 0.323542 0.495646
91 1 0.800372 0.816773 0.985988
92 2 0.857434 0.898849 0.983259
93 2 0.853962 0.737903 0.955863
94 1 0.268999 0.299959 0.313712
95 2 0.332864 0.367861 0.277509
96 2 0.309927 0.208945 0.307272
97 1 0.690624 0.767348 0.64246
98 2 0.774421 0.809159 0.677531
99 2 0.614124 0.790561 0.702534
ITEM: TIMESTEP
2000
ITEM: NUMBER OF ATOMS
99
ITEM: BOX BOUNDS pp pp pp
-5.0000000000000000e+00 5.0000000000000000e+00
-5.0000000000000000e+00 5.0000000000000000e+00
-5.0000000000000000e+00 5.0000000000000000e+00
ITEM: ATOMS id type xs ys zs
1 1 0.376481 0.785077 0.445673
2 2 0.426382 0.716124 0.498165
3 2 0.29609 0.743136 0.403505
4 1 0.541997 0.879095 0.136154
5 2 0.5195 0.940364 0.0603912
6 2 0.545175 0.784818 0.102963
7 1 0.503812 0.441969 0.24575
8 2 0.524407 0.526016 0.295871
9 2 0.570281 0.430003 0.172003
10 1 0.598499 0.654459 0.908375
11 2 0.53992 0.729215 0.877068
12 2 0.68847 0.690615 0.932828
13 1 0.948898 0.0395509 0.907516
14 2 0.880875 0.0947369 0.859273
15 2 0.994541 0.0957296 0.976513
16 1 0.232909 0.806939 0.971473
17 2 0.157636 0.865503 0.941403
18 2 0.209449 0.764866 0.0591062
19 1 0.348751 0.45719 -0.0107596
20 2 0.427997 0.51032 -0.0407145
21 2 0.37751 0.390089 0.0575812
22 1 0.632524 0.965202 0.405339
23 2 0.612267 0.90866 0.325385
24 2 0.623924 0.909976 0.488261
25 1 0.430302 0.185008 0.0683059
26 2 0.411593 0.167916 0.165042
27 2 0.348398 0.165109 1.01449
28 1 0.916386 0.456226 0.849188
29 2 0.857179 0.404521 0.911004
30 2 0.891678 0.435751 0.754476
31 1 0.148289 0.118261 0.570234
32 2 0.194239 0.07599 0.492121
33 2 0.19887 0.19974 0.598566
34 1 0.268082 0.367725 0.622058
35 2 0.271634 0.452764 0.674552
36 2 0.213777 0.381889 0.539291
37 1 -0.0153621 0.241677 0.0941807
38 2 0.057715 0.298468 0.132056
39 2 0.947775 0.182571 0.165928
40 1 0.84384 0.164186 0.507601
41 2 0.942847 0.153232 0.516407
42 2 0.8067 0.0889929 0.453135
43 1 0.201281 0.842958 0.650643
44 2 0.27463 0.838966 0.582791
45 2 0.16011 0.934087 0.649899
46 1 0.537193 0.252229 0.461074
47 2 0.568758 0.169421 0.414745
48 2 0.527604 0.326132 0.394392
49 1 0.465255 0.874848 0.816962
50 2 0.378351 0.848482 0.858825
51 2 0.457264 0.966907 0.778735
52 1 0.318191 0.0558959 0.335116
53 2 0.403535 1.01446 0.366736
54 2 0.255977 0.984197 0.303673
55 1 -0.000642006 0.67407 0.70306
56 2 0.0912801 0.712975 0.696995
57 2 0.000538759 0.595185 0.764507
58 1 0.681303 0.356015 0.0292129
59 2 0.615712 0.287967 0.996544
60 2 0.745198 0.312842 0.0928801
61 1 0.201054 0.192219 0.894371
62 2 0.166975 0.281553 0.923662
63 2 0.134736 0.149836 0.832681
64 1 0.983104 0.585905 0.350832
65 2 0.943969 0.533848 0.426717
66 2 0.930208 0.568592 0.267752
67 1 0.503151 0.546607 0.559669
68 2 0.449704 0.477828 0.608789
69 2 0.529456 0.619646 0.622704
70 1 0.203641 0.664551 0.188801
71 2 0.12172 0.627186 0.232307
72 2 0.24293 0.596108 0.127386
73 1 0.745978 0.177378 0.763527
74 2 0.647848 0.189501 0.748578
75 2 0.791435 0.162161 0.675764
76 1 0.0957014 0.870043 0.389072
77 2 0.0472847 0.822017 0.462212
78 2 0.106494 0.80903 0.310581
79 1 0.287613 0.584621 0.761372
80 2 0.261456 0.68059 0.771661
81 2 0.294819 0.542176 0.85163
82 1 0.448552 0.152478 0.705141
83 2 0.464991 0.193628 0.615495
84 2 0.375203 0.202061 0.751632
85 1 0.856879 0.60301 0.103375
86 2 0.857017 0.524407 0.0415578
87 2 0.84755 0.6872 0.0502232
88 1 0.805191 0.487079 0.529855
89 2 0.740252 0.560537 0.549526
90 2 0.755422 0.401524 0.515599
91 1 0.872101 0.78845 0.917335
92 2 0.903926 0.882293 0.930775
93 2 0.917261 0.749084 0.837267
94 1 0.274459 0.306491 0.271227
95 2 0.348207 0.373569 0.263365
96 2 0.309018 0.224062 0.316073
97 1 0.684226 0.753894 0.623277
98 2 0.782143 0.764099 0.640829
99 2 0.632685 0.783479 0.703703
ITEM: TIMESTEP
3000
ITEM: NUMBER OF ATOMS
99
ITEM: BOX BOUNDS pp pp pp
-5.0000000000000000e+00 5.0000000000000000e+00
-5.0000000000000000e+00 5.0000000000000000e+00
-5.0000000000000000e+00 5.0000000000000000e+00
ITEM: ATOMS id type xs ys zs
1 1 0.382577 0.78759 0.480836
2 2 0.411779 0.717784 0.546215
3 2 0.337514 0.743687 0.403106
4 1 0.545345 0.847172 0.179215
5 2 0.477431 0.811434 0.115103
6 2 0.620408 0.781711 0.188181
7 1 0.466352 0.495026 0.208431
8 2 0.51093 0.503345 0.297558
9 2 0.534248 0.506847 0.135971
10 1 0.61715 0.69516 0.931265
11 2 0.560588 0.772672 0.90311
12 2 0.713656 0.720994 0.926896
13 1 0.930996 0.0291857 0.938436
14 2 0.880404 0.083031 0.871048
15 2 0.925943 0.0741462 0.0276155
16 1 0.255429 0.950627 0.0193664
17 2 0.186636 0.965136 0.948254
18 2 0.244792 0.85893 0.0578193
19 1 0.341357 0.382223 0.936732
20 2 0.367386 0.347303 0.0267492
21 2 0.280925 0.316506 0.891685
22 1 0.637654 0.966302 0.430237
23 2 0.595326 0.949905 0.341133
24 2 0.62574 0.88565 0.488145
25 1 0.415346 0.153015 0.09162
26 2 0.445586 0.13011 0.184145
27 2 0.342228 0.0906185 0.0640459
28 1 0.0209529 0.402215 0.645914
29 2 0.966996 0.343483 0.585588
30 2 0.970425 0.418304 0.730696
31 1 0.135557 0.117266 0.539445
32 2 0.170945 0.0413875 0.484763
33 2 0.20273 0.191327 0.541101
34 1 0.284958 0.37505 0.604864
35 2 0.193243 0.403879 0.632382
36 2 0.292942 0.379869 0.5053
37 1 0.994926 0.273435 0.106038
38 2 0.0151095 0.363917 0.0685439
39 2 0.0136374 0.27313 0.204271
40 1 0.838107 0.167318 0.482884
41 2 0.925373 0.138431 0.443511
42 2 0.77039 0.094753 0.470692
43 1 0.168689 0.856868 0.75123
44 2 0.232835 0.780189 0.75359
45 2 0.200788 0.925169 0.68562
46 1 0.512017 0.220517 0.40102
47 2 0.59794 0.169708 0.395042
48 2 0.435342 0.156331 0.402044
49 1 0.454176 0.897149 0.8268
50 2 0.385108 0.937938 0.886515
51 2 0.488968 0.966578 0.763799
52 1 0.316513 0.0294023 0.346067
53 2 0.369948 0.946967 0.36475
54 2 0.227823 0.00365371 0.307713
55 1 0.999297 0.68827 0.671979
56 2 0.068499 0.758283 0.689566
57 2 0.0442791 0.602098 0.648505
58 1 0.648019 0.354302 0.0348489
59 2 0.558129 0.326197 0.068464
60 2 0.690604 0.278186 0.985932
61 1 0.173796 0.189761 0.856476
62 2 0.148869 0.130674 0.779747
63 2 0.118895 0.165478 0.936452
64 1 0.967844 0.591329 0.363739
65 2 0.91433 0.566668 0.444535
66 2 0.915135 0.570739 0.28129
67 1 0.502222 0.552143 0.541996
68 2 0.433254 0.498926 0.591102
69 2 0.545982 0.616247 0.60505
70 1 0.225291 0.622921 0.294621
71 2 0.146177 0.573273 0.330344
72 2 0.29696 0.557832 0.269578
73 1 0.773254 0.245051 0.79289
74 2 0.675379 0.235851 0.774566
75 2 0.824773 0.225426 0.709459
76 1 0.0700403 0.879977 0.374929
77 2 0.990941 0.847049 0.426495
78 2 0.131908 0.803621 0.356434
79 1 0.322366 0.629064 0.7886
80 2 0.410646 0.673409 0.8041
81 2 0.324836 0.536118 0.825411
82 1 0.493765 0.197915 0.776538
83 2 0.454364 0.227287 0.689447
84 2 0.445118 0.24231 0.851789
85 1 0.856254 0.533548 0.0689506
86 2 0.795596 0.462155 0.0339695
87 2 0.879326 0.596842 0.995049
88 1 0.769044 0.457966 0.471423
89 2 0.671017 0.477215 0.466925
90 2 0.789647 0.376913 0.416596
91 1 0.872498 0.753108 0.903802
92 2 0.906777 0.834972 0.949881
93 2 0.928469 0.734394 0.823074
94 1 0.267442 0.311679 0.296146
95 2 0.348814 0.342993 0.247177
96 2 0.247806 0.21691 0.270982
97 1 0.676549 0.73008 0.62956
98 2 0.756726 0.70362 0.575973
99 2 0.69436 0.713567 0.726565
ITEM: TIMESTEP
4000
ITEM: NUMBER OF ATOMS
99
ITEM: BOX BOUNDS pp pp pp
-5.0000000000000000e+00 5.0000000000000000e+00
-5.0000000000000000e+00 5.0000000000000000e+00
-5.0000000000000000e+00 5.0000000000000000e+00
ITEM: ATOMS id type xs ys zs
1 1 0.414973 0.808792 0.448661
2 2 0.479624 0.769719 0.383136
3 2 0.331693 0.753461 0.450353
4 1 0.60254 0.704315 0.263805
5 2 0.649295 0.691372 0.176361
6 2 0.562976 0.61745 0.293625
7 1 0.487391 0.445896 0.234538
8 2 0.508708 0.371765 0.298179
9 2 0.548631 0.440744 0.155651
10 1 0.586203 0.67513 0.90118
11 2 0.525802 0.754783 0.903846
12 2 0.681463 0.705545 0.900464
13 1 0.928558 0.0516062 0.929039
14 2 0.858863 0.0759935 0.8616
15 2 0.916218 0.107123 0.0112921
16 1 0.238825 0.95503 0.0348204
17 2 0.191737 0.0233639 0.979024
18 2 0.217102 0.863528 0.000828274
19 1 0.332243 0.433287 0.915049
20 2 0.31569 0.481644 0.00100073
21 2 0.263874 0.361204 0.903657
22 1 0.657293 0.953825 0.418457
23 2 0.673027 0.870173 0.365972
24 2 0.595224 0.934345 0.494404
25 1 0.43517 0.167932 0.0827413
26 2 0.47258 0.17839 0.174889
27 2 0.381514 0.0836838 0.0779145
28 1 0.97751 0.424382 0.646997
29 2 0.908361 0.398976 0.579374
30 2 0.94236 0.406601 0.738912
31 1 0.160414 0.15259 0.559164
32 2 0.217213 0.109517 0.489031
33 2 0.194454 0.244786 0.577635
34 1 0.307395 0.368251 0.623841
35 2 0.25908 0.435418 0.680003
36 2 0.376482 0.41467 0.568412
37 1 0.989989 0.299694 0.0818245
38 2 0.953456 0.392733 0.0848461
39 2 0.0672172 0.292145 0.144902
40 1 0.849115 0.125616 0.4758
41 2 0.939857 0.0960197 0.505632
42 2 0.805424 0.0520728 0.424008
43 1 0.186226 0.907559 0.706298
44 2 0.277437 0.869588 0.690843
45 2 0.174682 0.990102 0.651041
46 1 0.528644 0.21084 0.392042
47 2 0.596488 0.139319 0.408838
48 2 0.438806 0.16905 0.378527
49 1 0.461513 0.913504 0.872048
50 2 0.384623 0.924025 0.935113
51 2 0.478081 0.000144186 0.824942
52 1 0.306533 0.0532886 0.355575
53 2 0.337167 0.95882 0.367288
54 2 0.207411 1.0548 0.342439
55 1 0.00970439 0.699623 0.69699
56 2 0.084433 0.763739 0.714448
57 2 0.0472562 0.612409 0.665627
58 1 0.647465 0.379925 1.00001
59 2 0.599766 0.297735 1.03114
60 2 0.600743 0.417226 0.919847
61 1 0.167312 0.220197 0.858412
62 2 0.138359 0.190372 0.767461
63 2 0.0990435 0.192289 0.925944
64 1 0.934557 0.633792 0.336261
65 2 0.879337 0.56861 0.388241
66 2 0.913569 0.62505 0.23888
67 1 0.53887 0.549703 0.529399
68 2 0.469245 0.62139 0.525737
69 2 0.616962 0.58179 0.582991
70 1 0.190641 0.581421 0.461619
71 2 0.0915107 0.58482 0.474333
72 2 0.213616 0.507454 0.398365
73 1 0.721178 0.140436 0.739044
74 2 0.622109 0.143498 0.75231
75 2 0.741713 0.140292 0.641176
76 1 0.0905467 0.861334 0.411821
77 2 0.0375032 0.792574 0.362238
78 2 0.104155 0.831246 0.506212
79 1 0.333699 0.630631 0.75324
80 2 0.431193 0.652307 0.75824
81 2 0.31251 0.557271 0.817811
82 1 0.454907 0.183683 0.787189
83 2 0.39761 0.230689 0.720051
84 2 0.436446 0.220453 0.878333
85 1 0.861303 0.565669 0.0645467
86 2 0.789109 0.50514 0.0310173
87 2 0.872758 0.642175 0.0011773
88 1 0.802924 0.396785 0.432915
89 2 0.703933 0.38686 0.443032
90 2 0.844085 0.306878 0.417997
91 1 0.82128 0.795082 0.905223
92 2 0.857164 0.885871 0.926895
93 2 0.8676 0.75943 0.824085
94 1 0.223825 0.316205 0.218119
95 2 0.311143 0.362577 0.203115
96 2 0.24039 0.219689 0.238377
97 1 0.696022 0.747319 0.642931
98 2 0.790295 0.716616 0.629897
99 2 0.690843 0.805528 0.724078
ITEM: TIMESTEP
5000
ITEM: NUMBER OF ATOMS
99
ITEM: BOX BOUNDS pp pp pp
-5.0000000000000000e+00 5.0000000000000000e+00
-5.0000000000000000e+00 5.0000000000000000e+00
-5.0000000000000000e+00 5.0000000000000000e+00
ITEM: ATOMS id type xs ys zs
1 1 0.414315 0.793719 0.416452
2 2 0.494124 0.768281 0.361832
3 2 0.355044 0.714009 0.427996
4 1 0.615432 0.707676 0.274835
5 2 0.700751 0.657454 0.26075
6 2 0.537958 0.649116 0.250992
7 1 0.492896 0.456672 0.216988
8 2 0.468532 0.394843 0.291712
9 2 0.549644 0.407976 0.150592
10 1 0.599188 0.633111 0.929758
11 2 0.508585 0.675369 0.927454
12 2 0.668667 0.702091 0.909399
13 1 0.929882 0.0448664 0.93388
14 2 0.856301 0.0746969 0.873085
15 2 0.925194 0.0962029 0.0195685
16 1 0.223655 0.969137 0.0158864
17 2 0.204232 0.896277 0.0815692
18 2 0.181896 0.94665 0.927849
19 1 0.374896 0.410815 0.910409
20 2 0.438572 0.377501 0.979947
21 2 0.306154 0.340615 0.891792
22 1 0.649746 0.976747 0.406394
23 2 0.648379 0.913902 0.32862
24 2 0.631765 0.925935 0.490625
25 1 0.440345 0.152806 0.0819659
26 2 0.466853 0.130369 0.175741
27 2 0.358131 0.101462 0.0573775
28 1 0.0301816 0.392747 0.668852
29 2 0.0346866 0.346684 0.757496
30 2 -0.0149015 0.333028 0.60251
31 1 0.144028 0.134194 0.557741
32 2 0.188307 0.0758041 0.489698
33 2 0.206087 0.208228 0.58358
34 1 0.305696 0.354047 0.599132
35 2 0.221888 0.393245 0.637074
36 2 0.378949 0.422018 0.602867
37 1 0.990421 0.312355 0.123629
38 2 0.933907 0.390093 0.15125
39 2 0.074526 0.311404 0.177717
40 1 0.83327 0.174732 0.494204
41 2 0.928999 0.147902 0.483433
42 2 0.774175 0.102682 0.457919
43 1 0.179992 0.920889 0.744812
44 2 0.239152 0.854712 0.698762
45 2 0.1493 -0.010375 0.678983
46 1 0.499595 0.247434 0.378149
47 2 0.540051 0.156013 0.375776
48 2 0.431111 0.251698 0.450894
49 1 0.490501 0.865129 0.80785
50 2 0.405493 0.815786 0.826259
51 2 0.469219 0.957892 0.777155
52 1 0.317936 0.0254846 0.324813
53 2 0.386555 0.953431 0.334803
54 2 0.230972 0.985007 0.296551
55 1 0.986116 0.67493 0.71649
56 2 0.0825072 0.695172 0.733779
57 2 -0.0246985 0.577165 0.698458
58 1 0.655217 0.374107 0.0231825
59 2 0.648455 0.306552 0.949762
60 2 0.622489 0.462634 0.99014
61 1 0.135908 0.244927 0.885532
62 2 0.137867 0.146318 0.902037
63 2 0.0661253 0.28704 0.943471
64 1 0.936462 0.659367 0.331992
65 2 0.88621 0.612355 0.404549
66 2 0.901539 0.630175 0.242952
67 1 0.5049 0.541453 0.594852
68 2 0.535121 0.593503 0.514993
69 2 0.564119 0.56241 0.672659
70 1 0.220443 0.589585 0.407635
71 2 0.138282 0.573032 0.353087
72 2 0.255398 0.502614 0.442481
73 1 0.734687 0.150272 0.761409
74 2 0.639229 0.121094 0.755382
75 2 0.774222 0.154123 0.669636
76 1 0.122923 0.85606 0.382137
77 2 0.0496092 0.796327 0.349625
78 2 0.192486 0.801222 0.428547
79 1 0.310305 0.665287 0.782223
80 2 0.362597 0.616554 0.71229
81 2 0.257507 0.599666 0.836133
82 1 0.458665 0.13608 0.79263
83 2 0.414506 0.215119 0.75017
84 2 0.449361 0.1421 0.892014
85 1 0.846427 0.587456 0.0657977
86 2 0.789662 0.510053 0.037753
87 2 0.813644 0.670728 0.0211778
88 1 0.781032 0.41832 0.377078
89 2 0.712517 0.383387 0.313161
90 2 0.788671 0.35614 0.455022
91 1 0.811219 0.811111 0.880467
92 2 0.83751 0.904248 0.905651
93 2 0.889673 0.764115 0.840016
94 1 0.224307 0.32772 0.26524
95 2 0.287029 0.398162 0.232015
96 2 0.272612 0.240392 0.271601
97 1 0.680113 0.77729 0.619218
98 2 0.765998 0.746471 0.660133
99 2 0.612119 0.79147 0.69116
ITEM: TIMESTEP
6000
ITEM: NUMBER OF ATOMS
99
ITEM: BOX BOUNDS pp pp pp
-5.0000000000000000e+00 5.0000000000000000e+00
-5.0000000000000000e+00 5.0000000000000000e+00
-5.0000000000000000e+00 5.0000000000000000e+00
ITEM: ATOMS id type xs ys zs
1 1 0.378479 0.792705 0.505142
2 2 0.463111 0.741607 0.520192
3 2 0.306859 0.730181 0.474138
4 1 0.527907 0.742462 0.23628
5 2 0.530273 0.64483 0.257783
6 2 0.466313 0.758104 0.159069
7 1 0.494698 0.457268 0.245417
8 2 0.50099 0.387972 0.317239
9 2 0.553222 0.431128 0.168661
10 1 0.602006 0.686861 0.91566
11 2 0.530032 0.754687 0.900847
12 2 0.690863 0.732643 0.918554
13 1 0.89516 0.0606745 0.956592
14 2 0.842968 0.0903769 0.876631
15 2 0.925268 0.140753 1.00837
16 1 0.235606 0.971657 0.0169416
17 2 0.169093 0.899802 0.0372634
18 2 0.20123 0.0287864 0.942413
19 1 0.351073 0.400159 0.935285
20 2 0.407936 0.334937 0.98541
21 2 0.268946 0.353947 0.901824
22 1 0.660294 0.956561 0.43363
23 2 0.671565 0.920834 0.340912
24 2 0.65345 0.880415 0.498088
25 1 0.464672 0.172355 0.0650418
26 2 0.533398 0.19783 0.13307
27 2 0.398461 0.109828 0.106351
28 1 0.036013 0.388206 0.682893
29 2 1.00753 0.467302 0.737046
30 2 0.977667 0.380402 0.602054
31 1 0.148778 0.146532 0.536379
32 2 0.220833 0.109554 0.477721
33 2 0.182529 0.228211 0.583171
34 1 0.294451 0.356209 0.597587
35 2 0.247069 0.440658 0.622553
36 2 0.386692 0.377935 0.565654
37 1 -0.00106773 0.316392 0.0597025
38 2 -0.0431623 0.404457 0.0379617
39 2 0.0617566 0.327581 0.136695
40 1 0.844214 0.171111 0.494412
41 2 0.941954 0.16398 0.474513
42 2 0.794525 0.101291 0.442874
43 1 0.181222 0.898502 0.717427
44 2 0.247035 0.862203 0.651466
45 2 0.14893 -0.0120462 0.686513
46 1 0.506961 0.241893 0.410745
47 2 0.581419 0.179874 0.435435
48 2 0.419623 0.193773 0.418259
49 1 0.439923 0.879055 0.816895
50 2 0.343514 0.88303 0.843153
51 2 0.469022 0.968615 0.783244
52 1 0.327103 0.0308701 0.341809
53 2 0.36983 0.946711 0.374849
54 2 0.238237 0.00944137 0.301267
55 1 0.999237 0.688476 0.676423
56 2 0.0855269 0.730741 0.70413
57 2 0.00986835 0.647215 0.585954
58 1 0.643676 0.417378 0.998789
59 2 0.611122 0.33646 0.949876
60 2 0.609607 0.499713 0.9534
61 1 0.15362 0.227493 0.840056
62 2 0.0964255 0.270473 0.770188
63 2 0.095846 0.194218 0.914587
64 1 0.935433 0.62598 0.353476
65 2 0.896504 0.550807 0.406707
66 2 0.895196 0.626331 0.26193
67 1 0.547131 0.51221 0.582428
68 2 0.62528 0.568363 0.609622
69 2 0.463555 0.549768 0.622483
70 1 0.181012 0.585208 0.425527
71 2 0.0842497 0.592052 0.401234
72 2 0.221594 0.50658 0.378935
73 1 0.706846 0.0528551 0.735739
74 2 0.618544 0.0986664 0.745942
75 2 0.746512 0.0763201 0.646992
76 1 0.085889 0.854031 0.337313
77 2 -0.0074663 0.82101 0.32337
78 2 0.147628 0.776051 0.347672
79 1 0.353776 0.612259 0.729631
80 2 0.358834 0.712012 0.734499
81 2 0.373147 0.573465 0.819741
82 1 0.46285 0.182023 0.78689
83 2 0.407292 0.241889 0.729189
84 2 0.4112 0.157485 0.868928
85 1 0.877015 0.593737 0.0738145
86 2 0.80638 0.530644 0.0417225
87 2 0.877997 0.675062 0.0156304
88 1 0.815513 0.431446 0.51749
89 2 0.724383 0.472525 0.520287
90 2 0.808089 0.332828 0.532297
91 1 0.853678 0.799672 0.912124
92 2 0.866413 0.897837 0.926312
93 2 0.927753 0.764369 0.854968
94 1 0.232071 0.327558 0.248688
95 2 0.303787 0.379468 0.202188
96 2 0.273675 0.25515 0.3037
97 1 0.710327 0.747859 0.602868
98 2 0.80671 0.735946 0.626707
99 2 0.669763 0.817627 0.661918
ITEM: TIMESTEP
7000
ITEM: NUMBER OF ATOMS
99
ITEM: BOX BOUNDS pp pp pp
-5.0000000000000000e+00 5.0000000000000000e+00
-5.0000000000000000e+00 5.0000000000000000e+00
-5.0000000000000000e+00 5.0000000000000000e+00
ITEM: ATOMS id type xs ys zs
1 1 0.363181 0.790345 0.501253
2 2 0.437371 0.723412 0.49728
3 2 0.275274 0.743068 0.495138
4 1 0.618014 0.710196 0.285619
5 2 0.564882 0.664543 0.356982
6 2 0.585945 0.680126 0.1958
7 1 0.47666 0.470664 0.23014
8 2 0.49959 0.435264 0.32081
9 2 0.548721 0.44576 0.165432
10 1 0.584072 0.666901 0.932044
11 2 0.522311 0.734598 0.892009
12 2 0.677279 0.703122 0.932759
13 1 0.869334 0.0745846 0.94563
14 2 0.821797 0.0951888 0.860098
15 2 0.886836 0.159568 0.995344
16 1 0.30196 0.987582 0.0441729
17 2 0.237844 0.934896 0.0999692
18 2 0.251592 0.0373916 0.973589
19 1 0.316706 0.439724 0.94545
20 2 0.337036 0.453332 0.0424112
21 2 0.27304 0.350666 0.932728
22 1 0.65196 0.954102 0.390659
23 2 0.624641 0.868852 0.346092
24 2 0.656367 0.940077 0.489573
25 1 0.555392 0.0534372 0.108509
26 2 0.610192 0.020402 0.185357
27 2 0.465035 0.0106754 0.111187
28 1 0.994329 0.405041 0.667732
29 2 -0.00867061 0.485086 0.727597
30 2 0.914113 0.405052 0.608021
31 1 0.123616 0.175129 0.604099
32 2 0.208652 0.224235 0.58519
33 2 0.0520438 0.240578 0.62847
34 1 0.3323 0.358263 0.627149
35 2 0.355929 0.405155 0.712254
36 2 0.38416 0.398231 0.551564
37 1 1.00772 0.313207 0.0675472
38 2 1.00773 0.410054 0.0924596
39 2 0.072504 0.263855 0.125572
40 1 0.806083 0.163928 0.454585
41 2 0.900037 0.153414 0.421994
42 2 0.751679 0.0852608 0.4254
43 1 0.183939 0.923522 0.711203
44 2 0.270282 0.888998 0.67442
45 2 0.156727 0.00557203 0.66093
46 1 0.49882 0.245695 0.396613
47 2 0.569846 0.193491 0.349389
48 2 0.419491 0.186994 0.412772
49 1 0.459283 0.876927 0.811539
50 2 0.402241 0.934982 0.86964
51 2 0.540127 0.928082 0.782428
52 1 0.321265 0.0208901 0.356201
53 2 0.367378 0.942696 0.398145
54 2 0.234093 0.991199 0.31722
55 1 -0.00250419 0.719616 0.684394
56 2 0.0606539 0.792422 0.711044
57 2 0.0464072 0.651217 0.630271
58 1 0.626866 0.402806 0.981195
59 2 0.591458 0.334994 0.916791
60 2 0.607339 0.4947 0.946927
61 1 0.188205 0.210249 0.863995
62 2 0.189352 0.201396 0.764394
63 2 0.0955069 0.232153 0.894445
64 1 0.90457 0.628088 0.347645
65 2 0.841055 0.564649 0.391705
66 2 0.899942 0.616365 0.248442
67 1 0.52355 0.563918 0.541975
68 2 0.598665 0.628538 0.555468
69 2 0.456332 0.575194 0.61515
70 1 0.155541 0.618638 0.437755
71 2 0.0612619 0.626644 0.405391
72 2 0.186353 0.524049 0.427586
73 1 0.685782 0.0561255 0.675851
74 2 0.612179 0.107629 0.719783
75 2 0.73095 0.113928 0.60789
76 1 0.109599 0.852373 0.262585
77 2 0.0125735 0.831852 0.24974
78 2 0.14992 0.785231 0.324763
79 1 0.342426 0.637223 0.741567
80 2 0.383306 0.726979 0.758082
81 2 0.329672 0.589862 0.828712
82 1 0.494873 0.166823 0.862602
83 2 0.397277 0.181617 0.846595
84 2 0.507651 0.120989 0.950556
85 1 0.866992 0.594947 0.0722792
86 2 0.797025 0.530097 0.0422929
87 2 0.871267 0.671446 0.00801768
88 1 0.763115 0.431226 0.520349
89 2 0.66641 0.441273 0.543743
90 2 0.780267 0.337875 0.488862
91 1 0.83312 0.804884 0.887014
92 2 0.854794 0.899646 0.910474
93 2 0.892074 0.774784 0.812057
94 1 0.235079 0.281853 0.240587
95 2 0.31973 0.334712 0.246925
96 2 0.255921 0.184411 0.248985
97 1 0.744499 0.732131 0.57113
98 2 0.808245 0.700323 0.500954
99 2 0.793095 0.790194 0.636453
ITEM: TIMESTEP
8000
ITEM: NUMBER OF ATOMS
99
ITEM: BOX BOUNDS pp pp pp
-5.0000000000000000e+00 5.0000000000000000e+00
-5.0000000000000000e+00 5.0000000000000000e+00
-5.0000000000000000e+00 5.0000000000000000e+00
ITEM: ATOMS id type xs ys zs
1 1 0.372993 0.80461 0.466682
2 2 0.444934 0.765872 0.409028
3 2 0.295129 0.741925 0.469454
4 1 0.566679 0.735525 0.254936
5 2 0.523535 0.645582 0.247939
6 2 0.567669 0.779109 0.16494
7 1 0.508451 0.457617 0.22574
8 2 0.517454 0.408672 0.312478
9 2 0.579873 0.42717 0.162718
10 1 0.614803 0.668015 0.918442
11 2 0.541736 0.728923 0.887596
12 2 0.702614 0.715446 0.912152
13 1 0.94588 0.0712829 0.954614
14 2 0.91695 0.131508 0.88021
15 2 0.953242 0.124036 0.0392482
16 1 0.208115 0.958514 0.987528
17 2 0.155067 0.912497 0.0587202
18 2 0.161327 0.948955 0.899667
19 1 0.352844 0.445263 0.938695
20 2 0.330023 0.472149 0.0322701
21 2 0.282809 0.382938 0.903901
22 1 0.67586 0.982014 0.377176
23 2 0.674438 0.934346 0.28928
24 2 0.655245 0.917267 0.450544
25 1 0.508793 0.963581 0.0929704
26 2 0.458057 0.991375 0.174539
27 2 0.444459 0.938245 0.0207253
28 1 0.87719 0.28226 0.794624
29 2 0.861745 0.331117 0.880498
30 2 0.855902 0.342508 0.717703
31 1 0.0923712 0.181642 0.614438
32 2 0.166533 0.248603 0.610408
33 2 0.027597 0.207908 0.685953
34 1 0.28641 0.369132 0.597281
35 2 0.316055 0.457058 0.634566
36 2 0.362377 0.326397 0.548263
37 1 0.00550682 0.318349 0.0746124
38 2 0.974324 0.409791 0.100418
39 2 0.0879291 0.295396 0.126379
40 1 0.814495 0.194123 0.504
41 2 0.914189 0.186355 0.504906
42 2 0.776494 0.127966 0.439354
43 1 0.204089 0.932243 0.676676
44 2 0.255438 0.9022 0.596298
45 2 0.167232 0.0237653 0.660389
46 1 0.49078 0.266451 0.423415
47 2 0.546923 0.227779 0.496576
48 2 0.466461 0.194426 0.358447
49 1 0.456409 0.887616 0.788837
50 2 0.359524 0.909052 0.776431
51 2 0.511622 0.967094 0.763644
52 1 0.344808 0.044304 0.335539
53 2 0.372402 0.974379 0.401486
54 2 0.251197 0.07351 0.355132
55 1 1.00188 0.726206 0.700872
56 2 0.0839869 0.778632 0.678304
57 2 0.0278488 0.63333 0.727316
58 1 0.663324 0.385092 1.00395
59 2 0.620588 0.303284 0.965463
60 2 0.642121 0.46402 0.946321
61 1 0.176767 0.233635 0.875672
62 2 0.09267 0.278067 0.906551
63 2 0.183578 0.142813 0.916964
64 1 0.924534 0.661976 0.324112
65 2 0.857969 0.633258 0.392991
66 2 0.894111 0.631827 0.233749
67 1 0.534045 0.577261 0.517996
68 2 0.582795 0.652156 0.562875
69 2 0.437803 0.602049 0.506904
70 1 0.206312 0.59662 0.446567
71 2 0.106903 0.594082 0.436012
72 2 0.238439 0.508401 0.480994
73 1 0.659538 0.0697543 0.691359
74 2 0.621468 0.144809 0.745372
75 2 0.724492 0.106282 0.624674
76 1 0.14012 0.799736 0.230406
77 2 0.0580994 0.747764 0.254313
78 2 0.217425 0.766811 0.284627
79 1 0.319238 0.63392 0.742628
80 2 0.394342 0.699928 0.741079
81 2 0.326573 0.577 0.824521
82 1 0.512395 0.175164 0.897437
83 2 0.431821 0.233387 0.886576
84 2 0.495326 0.10769 0.969241
85 1 0.874148 0.568292 0.0547827
86 2 0.798793 0.505489 0.0353584
87 2 0.864227 0.650575 -0.00117348
88 1 0.772853 0.458417 0.536861
89 2 0.67422 0.472818 0.528854
90 2 0.795881 0.366663 0.504442
91 1 0.839649 0.817655 0.91707
92 2 0.861744 0.909577 0.949663
93 2 0.902272 0.792509 0.843272
94 1 0.280104 0.270191 0.200187
95 2 0.338791 0.344524 0.232286
96 2 0.315659 0.182878 0.233538
97 1 0.71291 0.789663 0.592178
98 2 0.779102 0.723809 0.627981
99 2 0.697073 0.861301 0.660128
ITEM: TIMESTEP
9000
ITEM: NUMBER OF ATOMS
99
ITEM: BOX BOUNDS pp pp pp
-5.0000000000000000e+00 5.0000000000000000e+00
-5.0000000000000000e+00 5.0000000000000000e+00
-5.0000000000000000e+00 5.0000000000000000e+00
ITEM: ATOMS id type xs ys zs
1 1 0.360217 0.816716 0.490756
2 2 0.440631 0.827639 0.432324
3 2 0.305989 0.73907 0.458656
4 1 0.598386 0.698825 0.252583
5 2 0.538362 0.61919 0.245139
6 2 0.58167 0.760471 0.175639
7 1 0.487959 0.457915 0.230849
8 2 0.520971 0.403752 0.308157
9 2 0.544256 0.438949 0.150407
10 1 0.62138 0.668412 0.92414
11 2 0.547139 0.731047 0.900366
12 2 0.70824 0.717961 0.923637
13 1 0.867712 0.0855043 0.965517
14 2 0.855177 0.116255 0.871192
15 2 0.908382 0.159219 0.0194809
16 1 0.235286 0.960114 0.98894
17 2 0.176726 0.907006 0.0501797
18 2 0.208821 0.942688 0.894093
19 1 0.350464 0.456615 0.944221
20 2 0.314898 0.46987 0.0367378
21 2 0.287919 0.398173 0.892523
22 1 0.673867 0.971725 0.384938
23 2 0.667042 0.964805 0.285412
24 2 0.685328 0.880384 0.423993
25 1 0.518497 0.949929 0.099078
26 2 0.451888 -0.0412276 0.173139
27 2 0.476122 0.903081 0.0215558
28 1 0.860431 0.314906 0.787918
29 2 0.790507 0.338612 0.855363
30 2 0.880089 0.394639 0.730854
31 1 0.113183 0.190725 0.618781
32 2 0.176779 0.261512 0.588043
33 2 0.120196 0.180423 0.718001
34 1 0.296167 0.379511 0.57048
35 2 0.287121 0.463574 0.623881
36 2 0.391717 0.367162 0.543689
37 1 1.0153 0.315125 0.0766014
38 2 0.973395 0.404607 0.061219
39 2 0.095136 0.325464 0.13593
40 1 0.831615 0.211514 0.515922
41 2 0.926723 0.191622 0.539558
42 2 0.805964 0.159576 0.434408
43 1 0.207456 0.923379 0.694415
44 2 0.248403 0.877053 0.61582
45 2 0.172654 0.0127268 0.666028
46 1 0.550266 0.262786 0.428851
47 2 0.616684 0.236597 0.498871
48 2 0.507509 0.180653 0.391088
49 1 0.4641 0.87307 0.820867
50 2 0.392435 0.890486 0.753335
51 2 0.547974 0.920049 0.793332
52 1 0.327104 0.0183071 0.32763
53 2 0.352019 0.960043 0.404991
54 2 0.239305 0.988374 0.290277
55 1 0.982996 0.714141 0.681032
56 2 0.948475 0.645725 0.616785
57 2 0.0815939 0.725005 0.668363
58 1 0.64419 0.390505 0.986288
59 2 0.577313 0.321324 0.959056
60 2 0.62708 0.475103 0.935787
61 1 0.211214 0.203599 0.895777
62 2 0.128271 0.245936 0.932219
63 2 0.237402 0.126363 0.953647
64 1 0.923769 0.628359 0.314951
65 2 0.85542 0.610125 0.385634
66 2 0.886672 0.603435 0.225494
67 1 0.532407 0.551266 0.53958
68 2 0.454033 0.582311 0.593374
69 2 0.605236 0.619631 0.544272
70 1 0.213126 0.601276 0.386526
71 2 0.126823 0.587333 0.337973
72 2 0.262339 0.514438 0.392636
73 1 0.687275 0.0654576 0.701913
74 2 0.614114 0.106661 0.756226
75 2 0.751155 0.1366 0.672621
76 1 0.109419 0.841018 0.216414
77 2 0.0168989 0.870793 0.23994
78 2 0.139452 0.771118 0.281315
79 1 0.29581 0.631844 0.740641
80 2 0.337551 0.72235 0.748786
81 2 0.322195 0.575783 0.819133
82 1 0.493709 0.169683 0.873912
83 2 0.405038 0.128795 0.852332