LAMMPS data file. CGCMM style. atom_style full generated by VMD/TopoTools v1.8 on Tue Jul 30 15:05:48 -0700 2024
 618 atoms
 747 bonds
 1266 angles
 2350 dihedrals
 0 impropers
 5 atom types
 3 bond types
 3 angle types
 1 dihedral types
 0 improper types
 -40.000000 40.000000  xlo xhi
 -40.000000 40.000000  ylo yhi
 -0.000500 33.229500  zlo zhi

# Pair Coeffs
#
# 1  1
# 2  2 
# 3  3
# 4  4
# 5  5

# Bond Coeffs
#
# 1  1-1
# 2  2-3
# 3  4-5

# Angle Coeffs
#
# 1  1-1-1
# 2  2-3-2
# 3  5-4-5

# Dihedral Coeffs
#
# 1  1-1-1-1

 Masses

 1 12.010700 # 1
 2 1.007940 # 2
 3 15.999400 # 3
 4 12.010700 # 4
 5 15.999400 # 5

 Atoms # full

1 1 1 0.000000 5.162000 0.465000 8.843000 # 1 CNT
2 2 1 0.000000 4.853000 1.821000 9.111000 # 1 CNT
3 3 1 0.000000 4.670000 2.249000 10.451000 # 1 CNT
4 4 1 0.000000 3.903000 3.410000 10.719000 # 1 CNT
5 5 1 0.000000 5.100000 0.925000 6.431000 # 1 CNT
6 6 1 0.000000 4.670000 2.249000 6.699000 # 1 CNT
7 7 1 0.000000 4.450000 2.658000 8.039000 # 1 CNT
8 8 1 0.000000 3.582000 3.746000 8.307000 # 1 CNT
9 9 1 0.000000 3.232000 4.052000 9.647000 # 1 CNT
10 10 1 0.000000 2.037000 4.766000 9.915000 # 1 CNT
11 11 1 0.000000 4.996000 1.379000 4.020000 # 1 CNT
12 12 1 0.000000 4.450000 2.658000 4.288000 # 1 CNT
13 13 1 0.000000 4.193000 3.047000 5.628000 # 1 CNT
14 14 1 0.000000 3.232000 4.052000 5.895000 # 1 CNT
15 15 1 0.000000 2.855000 4.326000 7.235000 # 1 CNT
16 16 1 0.000000 1.602000 4.930000 7.503000 # 1 CNT
17 17 1 0.000000 1.153000 5.053000 8.843000 # 1 CNT
18 18 1 0.000000 -0.233000 5.178000 9.111000 # 1 CNT
19 19 1 0.000000 -0.696000 5.136000 10.451000 # 1 CNT
20 20 1 0.000000 -2.037000 4.766000 10.719000 # 1 CNT
21 21 1 0.000000 5.183000 0.000000 0.000000 # 1 CNT
22 22 1 0.000000 4.996000 1.379000 0.268000 # 1 CNT
23 23 1 0.000000 4.853000 1.821000 1.608000 # 1 CNT
24 24 1 0.000000 4.193000 3.047000 1.876000 # 1 CNT
25 25 1 0.000000 3.903000 3.410000 3.216000 # 1 CNT
26 26 1 0.000000 2.855000 4.326000 3.484000 # 1 CNT
27 27 1 0.000000 2.456000 4.564000 4.824000 # 1 CNT
28 28 1 0.000000 1.153000 5.053000 5.092000 # 1 CNT
29 29 1 0.000000 0.696000 5.136000 6.431000 # 1 CNT
30 30 1 0.000000 -0.696000 5.136000 6.699000 # 1 CNT
31 31 1 0.000000 -1.153000 5.053000 8.039000 # 1 CNT
32 32 1 0.000000 -2.456000 4.564000 8.307000 # 1 CNT
33 33 1 0.000000 -2.855000 4.326000 9.647000 # 1 CNT
34 34 1 0.000000 -3.903000 3.410000 9.915000 # 1 CNT
35 35 1 0.000000 3.582000 3.746000 0.804000 # 1 CNT
36 36 1 0.000000 2.456000 4.564000 1.072000 # 1 CNT
37 37 1 0.000000 2.037000 4.766000 2.412000 # 1 CNT
38 38 1 0.000000 0.696000 5.136000 2.680000 # 1 CNT
39 39 1 0.000000 0.233000 5.178000 4.020000 # 1 CNT
40 40 1 0.000000 -1.153000 5.053000 4.288000 # 1 CNT
41 41 1 0.000000 -1.602000 4.930000 5.628000 # 1 CNT
42 42 1 0.000000 -2.855000 4.326000 5.895000 # 1 CNT
43 43 1 0.000000 -3.232000 4.052000 7.235000 # 1 CNT
44 44 1 0.000000 -4.193000 3.047000 7.503000 # 1 CNT
45 45 1 0.000000 -4.450000 2.658000 8.843000 # 1 CNT
46 46 1 0.000000 -4.996000 1.379000 9.111000 # 1 CNT
47 47 1 0.000000 -5.100000 0.925000 10.451000 # 1 CNT
48 48 1 0.000000 -5.162000 -0.465000 10.719000 # 1 CNT
49 49 1 0.000000 1.602000 4.930000 0.000000 # 1 CNT
50 50 1 0.000000 0.233000 5.178000 0.268000 # 1 CNT
51 51 1 0.000000 -0.233000 5.178000 1.608000 # 1 CNT
52 52 1 0.000000 -1.602000 4.930000 1.876000 # 1 CNT
53 53 1 0.000000 -2.037000 4.766000 3.216000 # 1 CNT
54 54 1 0.000000 -3.232000 4.052000 3.484000 # 1 CNT
55 55 1 0.000000 -3.582000 3.746000 4.824000 # 1 CNT
56 56 1 0.000000 -4.450000 2.658000 5.092000 # 1 CNT
57 57 1 0.000000 -4.670000 2.249000 6.431000 # 1 CNT
58 58 1 0.000000 -5.100000 0.925000 6.699000 # 1 CNT
59 59 1 0.000000 -5.162000 0.465000 8.039000 # 1 CNT
60 60 1 0.000000 -5.100000 -0.925000 8.307000 # 1 CNT
61 61 1 0.000000 -4.996000 -1.379000 9.647000 # 1 CNT
62 62 1 0.000000 -4.450000 -2.658000 9.915000 # 1 CNT
63 63 1 0.000000 -2.456000 4.564000 0.804000 # 1 CNT
64 64 1 0.000000 -3.582000 3.746000 1.072000 # 1 CNT
65 65 1 0.000000 -3.903000 3.410000 2.412000 # 1 CNT
66 66 1 0.000000 -4.670000 2.249000 2.680000 # 1 CNT
67 67 1 0.000000 -4.853000 1.821000 4.020000 # 1 CNT
68 68 1 0.000000 -5.162000 0.465000 4.288000 # 1 CNT
69 69 1 0.000000 -5.183000 0.000000 5.628000 # 1 CNT
70 70 1 0.000000 -4.996000 -1.379000 5.895000 # 1 CNT
71 71 1 0.000000 -4.853000 -1.821000 7.235000 # 1 CNT
72 72 1 0.000000 -4.193000 -3.047000 7.503000 # 1 CNT
73 73 1 0.000000 -3.903000 -3.410000 8.843000 # 1 CNT
74 74 1 0.000000 -2.855000 -4.326000 9.111000 # 1 CNT
75 75 1 0.000000 -2.456000 -4.564000 10.451000 # 1 CNT
76 76 1 0.000000 -1.153000 -5.053000 10.719000 # 1 CNT
77 77 1 0.000000 -4.193000 3.047000 0.000000 # 1 CNT
78 78 1 0.000000 -4.853000 1.821000 0.268000 # 1 CNT
79 79 1 0.000000 -4.996000 1.379000 1.608000 # 1 CNT
80 80 1 0.000000 -5.183000 0.000000 1.876000 # 1 CNT
81 81 1 0.000000 -5.162000 -0.465000 3.216000 # 1 CNT
82 82 1 0.000000 -4.853000 -1.821000 3.484000 # 1 CNT
83 83 1 0.000000 -4.670000 -2.249000 4.824000 # 1 CNT
84 84 1 0.000000 -3.903000 -3.410000 5.092000 # 1 CNT
85 85 1 0.000000 -3.582000 -3.746000 6.431000 # 1 CNT
86 86 1 0.000000 -2.456000 -4.564000 6.699000 # 1 CNT
87 87 1 0.000000 -2.037000 -4.766000 8.039000 # 1 CNT
88 88 1 0.000000 -0.696000 -5.136000 8.307000 # 1 CNT
89 89 1 0.000000 -0.233000 -5.178000 9.647000 # 1 CNT
90 90 1 0.000000 1.153000 -5.053000 9.915000 # 1 CNT
91 91 1 0.000000 -5.100000 -0.925000 0.804000 # 1 CNT
92 92 1 0.000000 -4.670000 -2.249000 1.072000 # 1 CNT
93 93 1 0.000000 -4.450000 -2.658000 2.412000 # 1 CNT
94 94 1 0.000000 -3.582000 -3.746000 2.680000 # 1 CNT
95 95 1 0.000000 -3.232000 -4.052000 4.020000 # 1 CNT
96 96 1 0.000000 -2.037000 -4.766000 4.288000 # 1 CNT
97 97 1 0.000000 -1.602000 -4.930000 5.628000 # 1 CNT
98 98 1 0.000000 -0.233000 -5.178000 5.895000 # 1 CNT
99 99 1 0.000000 0.233000 -5.178000 7.235000 # 1 CNT
100 100 1 0.000000 1.602000 -4.930000 7.503000 # 1 CNT
101 101 1 0.000000 2.037000 -4.766000 8.843000 # 1 CNT
102 102 1 0.000000 3.232000 -4.052000 9.111000 # 1 CNT
103 103 1 0.000000 3.582000 -3.746000 10.451000 # 1 CNT
104 104 1 0.000000 4.450000 -2.658000 10.719000 # 1 CNT
105 105 1 0.000000 -4.193000 -3.047000 0.000000 # 1 CNT
106 106 1 0.000000 -3.232000 -4.052000 0.268000 # 1 CNT
107 107 1 0.000000 -2.855000 -4.326000 1.608000 # 1 CNT
108 108 1 0.000000 -1.602000 -4.930000 1.876000 # 1 CNT
109 109 1 0.000000 -1.153000 -5.053000 3.216000 # 1 CNT
110 110 1 0.000000 0.233000 -5.178000 3.484000 # 1 CNT
111 111 1 0.000000 0.696000 -5.136000 4.824000 # 1 CNT
112 112 1 0.000000 2.037000 -4.766000 5.092000 # 1 CNT
113 113 1 0.000000 2.456000 -4.564000 6.431000 # 1 CNT
114 114 1 0.000000 3.582000 -3.746000 6.699000 # 1 CNT
115 115 1 0.000000 3.903000 -3.410000 8.039000 # 1 CNT
116 116 1 0.000000 4.670000 -2.249000 8.307000 # 1 CNT
117 117 1 0.000000 4.853000 -1.821000 9.647000 # 1 CNT
118 118 1 0.000000 5.162000 -0.465000 9.915000 # 1 CNT
119 119 1 0.000000 -0.696000 -5.136000 0.804000 # 1 CNT
120 120 1 0.000000 0.696000 -5.136000 1.072000 # 1 CNT
121 121 1 0.000000 1.153000 -5.053000 2.412000 # 1 CNT
122 122 1 0.000000 2.456000 -4.564000 2.680000 # 1 CNT
123 123 1 0.000000 2.855000 -4.326000 4.020000 # 1 CNT
124 124 1 0.000000 3.903000 -3.410000 4.288000 # 1 CNT
125 125 1 0.000000 4.193000 -3.047000 5.628000 # 1 CNT
126 126 1 0.000000 4.853000 -1.821000 5.895000 # 1 CNT
127 127 1 0.000000 4.996000 -1.379000 7.235000 # 1 CNT
128 128 1 0.000000 5.183000 0.000000 7.503000 # 1 CNT
129 129 1 0.000000 1.602000 -4.930000 0.000000 # 1 CNT
130 130 1 0.000000 2.855000 -4.326000 0.268000 # 1 CNT
131 131 1 0.000000 3.232000 -4.052000 1.608000 # 1 CNT
132 132 1 0.000000 4.193000 -3.047000 1.876000 # 1 CNT
133 133 1 0.000000 4.450000 -2.658000 3.216000 # 1 CNT
134 134 1 0.000000 4.996000 -1.379000 3.484000 # 1 CNT
135 135 1 0.000000 5.100000 -0.925000 4.824000 # 1 CNT
136 136 1 0.000000 5.162000 0.465000 5.092000 # 1 CNT
137 137 1 0.000000 4.670000 -2.249000 0.804000 # 1 CNT
138 138 1 0.000000 5.100000 -0.925000 1.072000 # 1 CNT
139 139 1 0.000000 5.162000 -0.465000 2.412000 # 1 CNT
140 140 1 0.000000 5.100000 0.925000 2.680000 # 1 CNT
141 141 1 0.000000 5.162000 0.465000 20.098000 # 1 CNT
142 142 1 0.000000 4.853000 1.821000 20.365999 # 1 CNT
143 143 1 0.000000 4.670000 2.249000 21.705999 # 1 CNT
144 144 1 0.000000 3.903000 3.410000 21.974001 # 1 CNT
145 145 1 0.000000 5.100000 0.925000 17.686001 # 1 CNT
146 146 1 0.000000 4.670000 2.249000 17.954000 # 1 CNT
147 147 1 0.000000 4.450000 2.658000 19.294001 # 1 CNT
148 148 1 0.000000 3.582000 3.746000 19.562000 # 1 CNT
149 149 1 0.000000 3.232000 4.052000 20.902000 # 1 CNT
150 150 1 0.000000 2.037000 4.766000 21.170000 # 1 CNT
151 151 1 0.000000 4.996000 1.379000 15.275000 # 1 CNT
152 152 1 0.000000 4.450000 2.658000 15.543000 # 1 CNT
153 153 1 0.000000 4.193000 3.047000 16.882999 # 1 CNT
154 154 1 0.000000 3.232000 4.052000 17.150999 # 1 CNT
155 155 1 0.000000 2.855000 4.326000 18.490000 # 1 CNT
156 156 1 0.000000 1.602000 4.930000 18.757999 # 1 CNT
157 157 1 0.000000 1.153000 5.053000 20.098000 # 1 CNT
158 158 1 0.000000 -0.233000 5.178000 20.365999 # 1 CNT
159 159 1 0.000000 -0.696000 5.136000 21.705999 # 1 CNT
160 160 1 0.000000 -2.037000 4.766000 21.974001 # 1 CNT
161 161 1 0.000000 5.183000 0.000000 11.255000 # 1 CNT
162 162 1 0.000000 4.996000 1.379000 11.523000 # 1 CNT
163 163 1 0.000000 4.853000 1.821000 12.863000 # 1 CNT
164 164 1 0.000000 4.193000 3.047000 13.131000 # 1 CNT
165 165 1 0.000000 3.903000 3.410000 14.471000 # 1 CNT
166 166 1 0.000000 2.855000 4.326000 14.739000 # 1 CNT
167 167 1 0.000000 2.456000 4.564000 16.079000 # 1 CNT
168 168 1 0.000000 1.153000 5.053000 16.347000 # 1 CNT
169 169 1 0.000000 0.696000 5.136000 17.686001 # 1 CNT
170 170 1 0.000000 -0.696000 5.136000 17.954000 # 1 CNT
171 171 1 0.000000 -1.153000 5.053000 19.294001 # 1 CNT
172 172 1 0.000000 -2.456000 4.564000 19.562000 # 1 CNT
173 173 1 0.000000 -2.855000 4.326000 20.902000 # 1 CNT
174 174 1 0.000000 -3.903000 3.410000 21.170000 # 1 CNT
175 175 1 0.000000 3.582000 3.746000 12.059000 # 1 CNT
176 176 1 0.000000 2.456000 4.564000 12.327000 # 1 CNT
177 177 1 0.000000 2.037000 4.766000 13.667000 # 1 CNT
178 178 1 0.000000 0.696000 5.136000 13.935000 # 1 CNT
179 179 1 0.000000 0.233000 5.178000 15.275000 # 1 CNT
180 180 1 0.000000 -1.153000 5.053000 15.543000 # 1 CNT
181 181 1 0.000000 -1.602000 4.930000 16.882999 # 1 CNT
182 182 1 0.000000 -2.855000 4.326000 17.150999 # 1 CNT
183 183 1 0.000000 -3.232000 4.052000 18.490000 # 1 CNT
184 184 1 0.000000 -4.193000 3.047000 18.757999 # 1 CNT
185 185 1 0.000000 -4.450000 2.658000 20.098000 # 1 CNT
186 186 1 0.000000 -4.996000 1.379000 20.365999 # 1 CNT
187 187 1 0.000000 -5.100000 0.925000 21.705999 # 1 CNT
188 188 1 0.000000 -5.162000 -0.465000 21.974001 # 1 CNT
189 189 1 0.000000 1.602000 4.930000 11.255000 # 1 CNT
190 190 1 0.000000 0.233000 5.178000 11.523000 # 1 CNT
191 191 1 0.000000 -0.233000 5.178000 12.863000 # 1 CNT
192 192 1 0.000000 -1.602000 4.930000 13.131000 # 1 CNT
193 193 1 0.000000 -2.037000 4.766000 14.471000 # 1 CNT
194 194 1 0.000000 -3.232000 4.052000 14.739000 # 1 CNT
195 195 1 0.000000 -3.582000 3.746000 16.079000 # 1 CNT
196 196 1 0.000000 -4.450000 2.658000 16.347000 # 1 CNT
197 197 1 0.000000 -4.670000 2.249000 17.686001 # 1 CNT
198 198 1 0.000000 -5.100000 0.925000 17.954000 # 1 CNT
199 199 1 0.000000 -5.162000 0.465000 19.294001 # 1 CNT
200 200 1 0.000000 -5.100000 -0.925000 19.562000 # 1 CNT
201 201 1 0.000000 -4.996000 -1.379000 20.902000 # 1 CNT
202 202 1 0.000000 -4.450000 -2.658000 21.170000 # 1 CNT
203 203 1 0.000000 -2.456000 4.564000 12.059000 # 1 CNT
204 204 1 0.000000 -3.582000 3.746000 12.327000 # 1 CNT
205 205 1 0.000000 -3.903000 3.410000 13.667000 # 1 CNT
206 206 1 0.000000 -4.670000 2.249000 13.935000 # 1 CNT
207 207 1 0.000000 -4.853000 1.821000 15.275000 # 1 CNT
208 208 1 0.000000 -5.162000 0.465000 15.543000 # 1 CNT
209 209 1 0.000000 -5.183000 0.000000 16.882999 # 1 CNT
210 210 1 0.000000 -4.996000 -1.379000 17.150999 # 1 CNT
211 211 1 0.000000 -4.853000 -1.821000 18.490000 # 1 CNT
212 212 1 0.000000 -4.193000 -3.047000 18.757999 # 1 CNT
213 213 1 0.000000 -3.903000 -3.410000 20.098000 # 1 CNT
214 214 1 0.000000 -2.855000 -4.326000 20.365999 # 1 CNT
215 215 1 0.000000 -2.456000 -4.564000 21.705999 # 1 CNT
216 216 1 0.000000 -1.153000 -5.053000 21.974001 # 1 CNT
217 217 1 0.000000 -4.193000 3.047000 11.255000 # 1 CNT
218 218 1 0.000000 -4.853000 1.821000 11.523000 # 1 CNT
219 219 1 0.000000 -4.996000 1.379000 12.863000 # 1 CNT
220 220 1 0.000000 -5.183000 0.000000 13.131000 # 1 CNT
221 221 1 0.000000 -5.162000 -0.465000 14.471000 # 1 CNT
222 222 1 0.000000 -4.853000 -1.821000 14.739000 # 1 CNT
223 223 1 0.000000 -4.670000 -2.249000 16.079000 # 1 CNT
224 224 1 0.000000 -3.903000 -3.410000 16.347000 # 1 CNT
225 225 1 0.000000 -3.582000 -3.746000 17.686001 # 1 CNT
226 226 1 0.000000 -2.456000 -4.564000 17.954000 # 1 CNT
227 227 1 0.000000 -2.037000 -4.766000 19.294001 # 1 CNT
228 228 1 0.000000 -0.696000 -5.136000 19.562000 # 1 CNT
229 229 1 0.000000 -0.233000 -5.178000 20.902000 # 1 CNT
230 230 1 0.000000 1.153000 -5.053000 21.170000 # 1 CNT
231 231 1 0.000000 -5.100000 -0.925000 12.059000 # 1 CNT
232 232 1 0.000000 -4.670000 -2.249000 12.327000 # 1 CNT
233 233 1 0.000000 -4.450000 -2.658000 13.667000 # 1 CNT
234 234 1 0.000000 -3.582000 -3.746000 13.935000 # 1 CNT
235 235 1 0.000000 -3.232000 -4.052000 15.275000 # 1 CNT
236 236 1 0.000000 -2.037000 -4.766000 15.543000 # 1 CNT
237 237 1 0.000000 -1.602000 -4.930000 16.882999 # 1 CNT
238 238 1 0.000000 -0.233000 -5.178000 17.150999 # 1 CNT
239 239 1 0.000000 0.233000 -5.178000 18.490000 # 1 CNT
240 240 1 0.000000 1.602000 -4.930000 18.757999 # 1 CNT
241 241 1 0.000000 2.037000 -4.766000 20.098000 # 1 CNT
242 242 1 0.000000 3.232000 -4.052000 20.365999 # 1 CNT
243 243 1 0.000000 3.582000 -3.746000 21.705999 # 1 CNT
244 244 1 0.000000 4.450000 -2.658000 21.974001 # 1 CNT
245 245 1 0.000000 -4.193000 -3.047000 11.255000 # 1 CNT
246 246 1 0.000000 -3.232000 -4.052000 11.523000 # 1 CNT
247 247 1 0.000000 -2.855000 -4.326000 12.863000 # 1 CNT
248 248 1 0.000000 -1.602000 -4.930000 13.131000 # 1 CNT
249 249 1 0.000000 -1.153000 -5.053000 14.471000 # 1 CNT
250 250 1 0.000000 0.233000 -5.178000 14.739000 # 1 CNT
251 251 1 0.000000 0.696000 -5.136000 16.079000 # 1 CNT
252 252 1 0.000000 2.037000 -4.766000 16.347000 # 1 CNT
253 253 1 0.000000 2.456000 -4.564000 17.686001 # 1 CNT
254 254 1 0.000000 3.582000 -3.746000 17.954000 # 1 CNT
255 255 1 0.000000 3.903000 -3.410000 19.294001 # 1 CNT
256 256 1 0.000000 4.670000 -2.249000 19.562000 # 1 CNT
257 257 1 0.000000 4.853000 -1.821000 20.902000 # 1 CNT
258 258 1 0.000000 5.162000 -0.465000 21.170000 # 1 CNT
259 259 1 0.000000 -0.696000 -5.136000 12.059000 # 1 CNT
260 260 1 0.000000 0.696000 -5.136000 12.327000 # 1 CNT
261 261 1 0.000000 1.153000 -5.053000 13.667000 # 1 CNT
262 262 1 0.000000 2.456000 -4.564000 13.935000 # 1 CNT
263 263 1 0.000000 2.855000 -4.326000 15.275000 # 1 CNT
264 264 1 0.000000 3.903000 -3.410000 15.543000 # 1 CNT
265 265 1 0.000000 4.193000 -3.047000 16.882999 # 1 CNT
266 266 1 0.000000 4.853000 -1.821000 17.150999 # 1 CNT
267 267 1 0.000000 4.996000 -1.379000 18.490000 # 1 CNT
268 268 1 0.000000 5.183000 0.000000 18.757999 # 1 CNT
269 269 1 0.000000 1.602000 -4.930000 11.255000 # 1 CNT
270 270 1 0.000000 2.855000 -4.326000 11.523000 # 1 CNT
271 271 1 0.000000 3.232000 -4.052000 12.863000 # 1 CNT
272 272 1 0.000000 4.193000 -3.047000 13.131000 # 1 CNT
273 273 1 0.000000 4.450000 -2.658000 14.471000 # 1 CNT
274 274 1 0.000000 4.996000 -1.379000 14.739000 # 1 CNT
275 275 1 0.000000 5.100000 -0.925000 16.079000 # 1 CNT
276 276 1 0.000000 5.162000 0.465000 16.347000 # 1 CNT
277 277 1 0.000000 4.670000 -2.249000 12.059000 # 1 CNT
278 278 1 0.000000 5.100000 -0.925000 12.327000 # 1 CNT
279 279 1 0.000000 5.162000 -0.465000 13.667000 # 1 CNT
280 280 1 0.000000 5.100000 0.925000 13.935000 # 1 CNT
281 281 1 0.000000 5.162000 0.465000 31.353001 # 1 CNT
282 282 1 0.000000 4.853000 1.821000 31.621000 # 1 CNT
283 283 1 0.000000 4.670000 2.249000 32.960999 # 1 CNT
284 284 1 0.000000 3.903000 3.410000 33.229000 # 1 CNT
285 285 1 0.000000 5.100000 0.925000 28.941000 # 1 CNT
286 286 1 0.000000 4.670000 2.249000 29.209000 # 1 CNT
287 287 1 0.000000 4.450000 2.658000 30.549000 # 1 CNT
288 288 1 0.000000 3.582000 3.746000 30.816999 # 1 CNT
289 289 1 0.000000 3.232000 4.052000 32.157001 # 1 CNT
290 290 1 0.000000 2.037000 4.766000 32.424999 # 1 CNT
291 291 1 0.000000 4.996000 1.379000 26.530001 # 1 CNT
292 292 1 0.000000 4.450000 2.658000 26.798000 # 1 CNT
293 293 1 0.000000 4.193000 3.047000 28.138000 # 1 CNT
294 294 1 0.000000 3.232000 4.052000 28.406000 # 1 CNT
295 295 1 0.000000 2.855000 4.326000 29.745001 # 1 CNT
296 296 1 0.000000 1.602000 4.930000 30.013000 # 1 CNT
297 297 1 0.000000 1.153000 5.053000 31.353001 # 1 CNT
298 298 1 0.000000 -0.233000 5.178000 31.621000 # 1 CNT
299 299 1 0.000000 -0.696000 5.136000 32.960999 # 1 CNT
300 300 1 0.000000 -2.037000 4.766000 33.229000 # 1 CNT
301 301 1 0.000000 5.183000 0.000000 22.510000 # 1 CNT
302 302 1 0.000000 4.996000 1.379000 22.778000 # 1 CNT
303 303 1 0.000000 4.853000 1.821000 24.118000 # 1 CNT
304 304 1 0.000000 4.193000 3.047000 24.386000 # 1 CNT
305 305 1 0.000000 3.903000 3.410000 25.726000 # 1 CNT
306 306 1 0.000000 2.855000 4.326000 25.993999 # 1 CNT
307 307 1 0.000000 2.456000 4.564000 27.334000 # 1 CNT
308 308 1 0.000000 1.153000 5.053000 27.601999 # 1 CNT
309 309 1 0.000000 0.696000 5.136000 28.941000 # 1 CNT
310 310 1 0.000000 -0.696000 5.136000 29.209000 # 1 CNT
311 311 1 0.000000 -1.153000 5.053000 30.549000 # 1 CNT
312 312 1 0.000000 -2.456000 4.564000 30.816999 # 1 CNT
313 313 1 0.000000 -2.855000 4.326000 32.157001 # 1 CNT
314 314 1 0.000000 -3.903000 3.410000 32.424999 # 1 CNT
315 315 1 0.000000 3.582000 3.746000 23.313999 # 1 CNT
316 316 1 0.000000 2.456000 4.564000 23.582001 # 1 CNT
317 317 1 0.000000 2.037000 4.766000 24.922001 # 1 CNT
318 318 1 0.000000 0.696000 5.136000 25.190001 # 1 CNT
319 319 1 0.000000 0.233000 5.178000 26.530001 # 1 CNT
320 320 1 0.000000 -1.153000 5.053000 26.798000 # 1 CNT
321 321 1 0.000000 -1.602000 4.930000 28.138000 # 1 CNT
322 322 1 0.000000 -2.855000 4.326000 28.406000 # 1 CNT
323 323 1 0.000000 -3.232000 4.052000 29.745001 # 1 CNT
324 324 1 0.000000 -4.193000 3.047000 30.013000 # 1 CNT
325 325 1 0.000000 -4.450000 2.658000 31.353001 # 1 CNT
326 326 1 0.000000 -4.996000 1.379000 31.621000 # 1 CNT
327 327 1 0.000000 -5.100000 0.925000 32.960999 # 1 CNT
328 328 1 0.000000 -5.162000 -0.465000 33.229000 # 1 CNT
329 329 1 0.000000 1.602000 4.930000 22.510000 # 1 CNT
330 330 1 0.000000 0.233000 5.178000 22.778000 # 1 CNT
331 331 1 0.000000 -0.233000 5.178000 24.118000 # 1 CNT
332 332 1 0.000000 -1.602000 4.930000 24.386000 # 1 CNT
333 333 1 0.000000 -2.037000 4.766000 25.726000 # 1 CNT
334 334 1 0.000000 -3.232000 4.052000 25.993999 # 1 CNT
335 335 1 0.000000 -3.582000 3.746000 27.334000 # 1 CNT
336 336 1 0.000000 -4.450000 2.658000 27.601999 # 1 CNT
337 337 1 0.000000 -4.670000 2.249000 28.941000 # 1 CNT
338 338 1 0.000000 -5.100000 0.925000 29.209000 # 1 CNT
339 339 1 0.000000 -5.162000 0.465000 30.549000 # 1 CNT
340 340 1 0.000000 -5.100000 -0.925000 30.816999 # 1 CNT
341 341 1 0.000000 -4.996000 -1.379000 32.157001 # 1 CNT
342 342 1 0.000000 -4.450000 -2.658000 32.424999 # 1 CNT
343 343 1 0.000000 -2.456000 4.564000 23.313999 # 1 CNT
344 344 1 0.000000 -3.582000 3.746000 23.582001 # 1 CNT
345 345 1 0.000000 -3.903000 3.410000 24.922001 # 1 CNT
346 346 1 0.000000 -4.670000 2.249000 25.190001 # 1 CNT
347 347 1 0.000000 -4.853000 1.821000 26.530001 # 1 CNT
348 348 1 0.000000 -5.162000 0.465000 26.798000 # 1 CNT
349 349 1 0.000000 -5.183000 0.000000 28.138000 # 1 CNT
350 350 1 0.000000 -4.996000 -1.379000 28.406000 # 1 CNT
351 351 1 0.000000 -4.853000 -1.821000 29.745001 # 1 CNT
352 352 1 0.000000 -4.193000 -3.047000 30.013000 # 1 CNT
353 353 1 0.000000 -3.903000 -3.410000 31.353001 # 1 CNT
354 354 1 0.000000 -2.855000 -4.326000 31.621000 # 1 CNT
355 355 1 0.000000 -2.456000 -4.564000 32.960999 # 1 CNT
356 356 1 0.000000 -1.153000 -5.053000 33.229000 # 1 CNT
357 357 1 0.000000 -4.193000 3.047000 22.510000 # 1 CNT
358 358 1 0.000000 -4.853000 1.821000 22.778000 # 1 CNT
359 359 1 0.000000 -4.996000 1.379000 24.118000 # 1 CNT
360 360 1 0.000000 -5.183000 0.000000 24.386000 # 1 CNT
361 361 1 0.000000 -5.162000 -0.465000 25.726000 # 1 CNT
362 362 1 0.000000 -4.853000 -1.821000 25.993999 # 1 CNT
363 363 1 0.000000 -4.670000 -2.249000 27.334000 # 1 CNT
364 364 1 0.000000 -3.903000 -3.410000 27.601999 # 1 CNT
365 365 1 0.000000 -3.582000 -3.746000 28.941000 # 1 CNT
366 366 1 0.000000 -2.456000 -4.564000 29.209000 # 1 CNT
367 367 1 0.000000 -2.037000 -4.766000 30.549000 # 1 CNT
368 368 1 0.000000 -0.696000 -5.136000 30.816999 # 1 CNT
369 369 1 0.000000 -0.233000 -5.178000 32.157001 # 1 CNT
370 370 1 0.000000 1.153000 -5.053000 32.424999 # 1 CNT
371 371 1 0.000000 -5.100000 -0.925000 23.313999 # 1 CNT
372 372 1 0.000000 -4.670000 -2.249000 23.582001 # 1 CNT
373 373 1 0.000000 -4.450000 -2.658000 24.922001 # 1 CNT
374 374 1 0.000000 -3.582000 -3.746000 25.190001 # 1 CNT
375 375 1 0.000000 -3.232000 -4.052000 26.530001 # 1 CNT
376 376 1 0.000000 -2.037000 -4.766000 26.798000 # 1 CNT
377 377 1 0.000000 -1.602000 -4.930000 28.138000 # 1 CNT
378 378 1 0.000000 -0.233000 -5.178000 28.406000 # 1 CNT
379 379 1 0.000000 0.233000 -5.178000 29.745001 # 1 CNT
380 380 1 0.000000 1.602000 -4.930000 30.013000 # 1 CNT
381 381 1 0.000000 2.037000 -4.766000 31.353001 # 1 CNT
382 382 1 0.000000 3.232000 -4.052000 31.621000 # 1 CNT
383 383 1 0.000000 3.582000 -3.746000 32.960999 # 1 CNT
384 384 1 0.000000 4.450000 -2.658000 33.229000 # 1 CNT
385 385 1 0.000000 -4.193000 -3.047000 22.510000 # 1 CNT
386 386 1 0.000000 -3.232000 -4.052000 22.778000 # 1 CNT
387 387 1 0.000000 -2.855000 -4.326000 24.118000 # 1 CNT
388 388 1 0.000000 -1.602000 -4.930000 24.386000 # 1 CNT
389 389 1 0.000000 -1.153000 -5.053000 25.726000 # 1 CNT
390 390 1 0.000000 0.233000 -5.178000 25.993999 # 1 CNT
391 391 1 0.000000 0.696000 -5.136000 27.334000 # 1 CNT
392 392 1 0.000000 2.037000 -4.766000 27.601999 # 1 CNT
393 393 1 0.000000 2.456000 -4.564000 28.941000 # 1 CNT
394 394 1 0.000000 3.582000 -3.746000 29.209000 # 1 CNT
395 395 1 0.000000 3.903000 -3.410000 30.549000 # 1 CNT
396 396 1 0.000000 4.670000 -2.249000 30.816999 # 1 CNT
397 397 1 0.000000 4.853000 -1.821000 32.157001 # 1 CNT
398 398 1 0.000000 5.162000 -0.465000 32.424999 # 1 CNT
399 399 1 0.000000 -0.696000 -5.136000 23.313999 # 1 CNT
400 400 1 0.000000 0.696000 -5.136000 23.582001 # 1 CNT
401 401 1 0.000000 1.153000 -5.053000 24.922001 # 1 CNT
402 402 1 0.000000 2.456000 -4.564000 25.190001 # 1 CNT
403 403 1 0.000000 2.855000 -4.326000 26.530001 # 1 CNT
404 404 1 0.000000 3.903000 -3.410000 26.798000 # 1 CNT
405 405 1 0.000000 4.193000 -3.047000 28.138000 # 1 CNT
406 406 1 0.000000 4.853000 -1.821000 28.406000 # 1 CNT
407 407 1 0.000000 4.996000 -1.379000 29.745001 # 1 CNT
408 408 1 0.000000 5.183000 0.000000 30.013000 # 1 CNT
409 409 1 0.000000 1.602000 -4.930000 22.510000 # 1 CNT
410 410 1 0.000000 2.855000 -4.326000 22.778000 # 1 CNT
411 411 1 0.000000 3.232000 -4.052000 24.118000 # 1 CNT
412 412 1 0.000000 4.193000 -3.047000 24.386000 # 1 CNT
413 413 1 0.000000 4.450000 -2.658000 25.726000 # 1 CNT
414 414 1 0.000000 4.996000 -1.379000 25.993999 # 1 CNT
415 415 1 0.000000 5.100000 -0.925000 27.334000 # 1 CNT
416 416 1 0.000000 5.162000 0.465000 27.601999 # 1 CNT
417 417 1 0.000000 4.670000 -2.249000 23.313999 # 1 CNT
418 418 1 0.000000 5.100000 -0.925000 23.582001 # 1 CNT
419 419 1 0.000000 5.162000 -0.465000 24.922001 # 1 CNT
420 420 1 0.000000 5.100000 0.925000 25.190001 # 1 CNT
421 1 3 -0.847600 -2.842000 -0.466000 27.976999 # 3 HOH
422 1 2 0.423800 -2.126000 0.017000 28.481001 # 2 HOH
423 1 2 0.423800 -2.506000 -1.368000 27.705000 # 2 HOH
424 2 3 -0.847600 -1.254000 0.234000 25.549000 # 3 HOH
425 2 2 0.423800 -1.960000 0.585000 24.933001 # 2 HOH
426 2 2 0.423800 -1.684000 -0.112000 26.382999 # 2 HOH
427 3 3 -0.847600 0.860000 -3.112000 10.423000 # 3 HOH
428 3 2 0.423800 0.235000 -2.612000 11.023000 # 2 HOH
429 3 2 0.423800 1.802000 -2.854000 10.637000 # 2 HOH
430 4 3 -0.847600 -1.861000 -0.487000 31.302000 # 3 HOH
431 4 2 0.423800 -2.718000 0.025000 31.357000 # 2 HOH
432 4 2 0.423800 -1.103000 0.150000 31.164000 # 2 HOH
433 5 3 -0.847600 -0.698000 -3.270000 28.791000 # 3 HOH
434 5 2 0.423800 0.102000 -3.043000 29.346001 # 2 HOH
435 5 2 0.423800 -0.808000 -2.585000 28.070999 # 2 HOH
436 6 3 -0.847600 1.876000 -1.514000 12.328000 # 3 HOH
437 6 2 0.423800 0.985000 -1.117000 12.550000 # 2 HOH
438 6 2 0.423800 2.233000 -1.084000 11.499000 # 2 HOH
439 7 3 -0.847600 -0.027000 0.329000 5.375000 # 3 HOH
440 7 2 0.423800 0.709000 0.197000 4.711000 # 2 HOH
441 7 2 0.423800 -0.189000 1.307000 5.502000 # 2 HOH
442 8 3 -0.847600 -3.069000 0.466000 6.428000 # 3 HOH
443 8 2 0.423800 -2.778000 -0.117000 5.669000 # 2 HOH
444 8 2 0.423800 -2.556000 1.324000 6.403000 # 2 HOH
445 9 3 -0.847600 -1.286000 2.236000 28.194000 # 3 HOH
446 9 2 0.423800 -2.239000 2.424000 28.431000 # 2 HOH
447 9 2 0.423800 -0.824000 3.095000 27.973000 # 2 HOH
448 10 3 -0.847600 0.842000 3.154000 6.878000 # 3 HOH
449 10 2 0.423800 1.279000 2.276000 7.071000 # 2 HOH
450 10 2 0.423800 -0.142000 3.018000 6.763000 # 2 HOH
451 11 3 -0.847600 0.905000 0.843000 28.018000 # 3 HOH
452 11 2 0.423800 0.399000 0.430000 28.775000 # 2 HOH
453 11 2 0.423800 0.261000 1.264000 27.379000 # 2 HOH
454 12 3 -0.847600 -3.108000 0.678000 14.572000 # 3 HOH
455 12 2 0.423800 -3.014000 0.680000 13.576000 # 2 HOH
456 12 2 0.423800 -2.660000 1.488000 14.949000 # 2 HOH
457 13 3 -0.847600 -2.369000 -1.396000 25.010000 # 3 HOH
458 13 2 0.423800 -3.264000 -0.967000 25.129999 # 2 HOH
459 13 2 0.423800 -2.325000 -2.232000 25.556999 # 2 HOH
460 14 3 -0.847600 0.047000 -2.110000 7.951000 # 3 HOH
461 14 2 0.423800 -0.653000 -1.816000 8.603000 # 2 HOH
462 14 2 0.423800 0.941000 -1.782000 8.255000 # 2 HOH
463 15 3 -0.847600 0.326000 3.056000 1.647000 # 3 HOH
464 15 2 0.423800 -0.585000 2.975000 1.242000 # 2 HOH
465 15 2 0.423800 0.260000 2.938000 2.638000 # 2 HOH
466 16 3 -0.847600 2.271000 1.711000 21.674000 # 3 HOH
467 16 2 0.423800 2.919000 1.364000 20.996000 # 2 HOH
468 16 2 0.423800 1.920000 2.599000 21.374001 # 2 HOH
469 17 3 -0.847600 2.131000 2.158000 14.837000 # 3 HOH
470 17 2 0.423800 1.525000 2.645000 14.207000 # 2 HOH
471 17 2 0.423800 1.705000 2.115000 15.741000 # 2 HOH
472 18 3 -0.847600 -1.946000 -2.317000 20.604000 # 3 HOH
473 18 2 0.423800 -1.441000 -1.483000 20.823999 # 2 HOH
474 18 2 0.423800 -1.302000 -3.070000 20.473000 # 2 HOH
475 19 3 -0.847600 2.904000 -0.680000 14.730000 # 3 HOH
476 19 2 0.423800 3.257000 0.033000 15.335000 # 2 HOH
477 19 2 0.423800 2.251000 -0.277000 14.088000 # 2 HOH
478 20 3 -0.847600 1.526000 -2.389000 18.049999 # 3 HOH
479 20 2 0.423800 1.838000 -2.752000 18.927999 # 2 HOH
480 20 2 0.423800 2.286000 -1.926000 17.594000 # 2 HOH
481 21 3 -0.847600 -1.449000 0.428000 11.194000 # 3 HOH
482 21 2 0.423800 -2.332000 0.131000 11.558000 # 2 HOH
483 21 2 0.423800 -1.599000 1.098000 10.467000 # 2 HOH
484 22 3 -0.847600 0.281000 -3.078000 2.834000 # 3 HOH
485 22 2 0.423800 -0.109000 -2.700000 3.674000 # 2 HOH
486 22 2 0.423800 -0.032000 -2.541000 2.051000 # 2 HOH
487 23 3 -0.847600 -2.066000 1.492000 18.403000 # 3 HOH
488 23 2 0.423800 -1.669000 0.638000 18.066999 # 2 HOH
489 23 2 0.423800 -1.360000 2.199000 18.426001 # 2 HOH
490 24 3 -0.847600 1.501000 2.259000 5.009000 # 3 HOH
491 24 2 0.423800 2.273000 2.417000 4.393000 # 2 HOH
492 24 2 0.423800 0.775000 2.917000 4.807000 # 2 HOH
493 25 3 -0.847600 1.732000 2.610000 27.221001 # 3 HOH
494 25 2 0.423800 1.852000 2.617000 28.214001 # 2 HOH
495 25 2 0.423800 0.914000 3.134000 26.982000 # 2 HOH
496 26 3 -0.847600 3.334000 -0.085000 26.500999 # 3 HOH
497 26 2 0.423800 2.617000 -0.425000 27.108000 # 2 HOH
498 26 2 0.423800 3.016000 0.746000 26.042999 # 2 HOH
499 27 3 -0.847600 -0.645000 3.173000 24.261000 # 3 HOH
500 27 2 0.423800 -0.044000 3.080000 25.055000 # 2 HOH
501 27 2 0.423800 -1.004000 2.274000 24.009001 # 2 HOH
502 28 3 -0.847600 1.841000 -1.456000 29.308001 # 3 HOH
503 28 2 0.423800 1.291000 -1.543000 28.478001 # 2 HOH
504 28 2 0.423800 1.371000 -0.858000 29.957001 # 2 HOH
505 29 3 -0.847600 -2.266000 -2.001000 29.660999 # 3 HOH
506 29 2 0.423800 -2.932000 -1.269000 29.805000 # 2 HOH
507 29 2 0.423800 -1.341000 -1.630000 29.743999 # 2 HOH
508 30 3 -0.847600 -2.128000 1.617000 30.271999 # 3 HOH
509 30 2 0.423800 -3.051000 1.407000 29.950001 # 2 HOH
510 30 2 0.423800 -2.055000 2.598000 30.452999 # 2 HOH
511 31 3 -0.847600 0.688000 -2.798000 31.242001 # 3 HOH
512 31 2 0.423800 1.613000 -2.661000 30.888000 # 2 HOH
513 31 2 0.423800 0.135000 -1.989000 31.046000 # 2 HOH
514 32 3 -0.847600 -2.605000 2.186000 26.448000 # 3 HOH
515 32 2 0.423800 -2.942000 1.357000 26.893000 # 2 HOH
516 32 2 0.423800 -1.635000 2.076000 26.230000 # 2 HOH
517 33 3 -0.847600 -0.055000 0.291000 7.790000 # 3 HOH
518 33 2 0.423800 0.566000 0.869000 8.320000 # 2 HOH
519 33 2 0.423800 -0.758000 0.861000 7.366000 # 2 HOH
520 34 3 -0.847600 0.731000 -2.897000 13.782000 # 3 HOH
521 34 2 0.423800 0.842000 -2.791000 14.770000 # 2 HOH
522 34 2 0.423800 -0.166000 -3.295000 13.590000 # 2 HOH